ITEM: TIMESTEP
40000
ITEM: NUMBER OF ATOMS
2048
ITEM: BOX BOUNDS pp pp pp
-0.4387817222 29.3187817222
-0.4387817222 29.3187817222
-0.4387817222 29.3187817222
ITEM: ATOMS id type VoronoiIndex3 VoronoiIndex4 VoronoiIndex5 VoronoiIndex6 VoronoiIndex7
268 1 0 1 8 4 1
69 1 0 1 10 3 0
454 1 0 2 8 3 2
267 1 0 2 8 4 0
784 1 0 3 6 3 0
1867 1 0 1 8 5 0
548 1 0 2 7 4 2
1901 1 0 2 7 2 2
164 1 0 2 4 6 1
523 1 0 4 2 8 0
262 1 0 2 6 3 0
743 1 0 3 3 7 0
498 1 0 4 4 5 0
503 1 1 4 2 4 1
805 1 0 2 4 6 1
309 1 0 0 12 3 0
1838 1 0 2 4 5 1
1306 1 0 0 10 3 0
239 1 0 2 5 5 0
981 1 0 2 6 4 0
50 1 0 0 10 3 0
274 1 0 3 6 5 0
1885 1 0 2 5 6 0
38 1 0 1 6 5 1
1579 1 0 3 5 4 1
1564 1 0 0 8 5 0
1018 1 1 2 4 6 1
1236 1 0 2 6 5 0
1730 1 0 0 10 2 0
1795 1 0 2 8 2 0
1832 1 0 1 8 4 0
1049 1 0 1 8 1 1
330 1 0 2 6 2 3
938 1 0 1 7 3 1
739 1 0 0 6 5 1
524 1 0 0 9 1 1
199 1 0 3 2 4 4
2046 1 1 0 8 3 1
725 1 0 4 6 4 2
560 1 0 2 6 5 0
1065 1 0 2 2 5 2
1804 1 0 2 3 5 1
1577 1 0 2 9 3 1
755 1 0 2 6 6 0
1573 1 0 3 6 3 1
1140 1 0 2 4 4 1
1108 1 0 3 5 3 2
1844 1 0 2 5 4 1
1365 1 0 3 6 4 0
832 1 0 1 6 5 1
26 1 0 0 7 6 0
436 1 0 1 8 3 0
1322 1 0 1 8 2 0
808 1 0 0 6 4 0
822 1 0 1 10 5 0
804 1 0 2 6 4 1
660 1 0 2 6 4 0
386 1 0 4 3 4 2
554 1 0 4 5 1 2
1701 1 0 2 7 3 1
1850 1 0 2 3 7 0
467 1 1 2 6 3 1
39 1 0 1 5 4 2
1043 1 0 2 5 5 1
1293 1 0 3 3 4 2
115 1 1 2 2 3 4
2019 1 0 6 2 4 2
531 1 0 3 6 3 3
1323 1 0 4 2 6 2
1629 1 0 2 5 5 2
696 1 0 2 5 7 0
258 1 0 1 5 2 2
1881 1 0 1 10 3 0
514 1 0 3 6 3 0
2007 1 0 3 4 5 1
1999 1 0 0 10 2 0
1269 1 0 1 7 5 0
750 1 0 1 5 3 0
1412 1 0 3 6 3 0
1473 1 0 3 6 4 0
1960 1 0 4 3 4 2
1667 1 0 3 5 6 0
1633 1 0 1 8 5 0
93 1 0 2 3 6 0
614 1 0 3 4 4 1
1027 1 0 2 5 4 2
346 1 0 1 7 5 0
1834 1 0 1 6 6 0
1813 1 0 1 10 3 0
79 1 1 0 9 3 0
1643 1 1 1 9 2 2
369 1 0 2 8 2 0
692 1 0 1 4 2 3
1816 1 0 1 9 2 2
220 1 0 3 5 3 2
87 1 0 0 8 4 0
1905 1 1 2 2 3 2
1935 1 0 2 6 3 2
1000 1 0 3 2 5 3
419 1 0 3 3 7 0
302 1 0 3 5 3 2
1975 1 0 2 8 4 0
794 1 0 0 10 2 0
551 1 0 1 10 2 0
181 1 0 1 9 4 0
1797 1 0 4 3 4 1
1877 1 0 1 8 5 0
670 1 0 2 8 1 0
1126 1 0 3 6 5 0
1841 1 0 1 4 6 0
1224 1 0 1 6 5 1
364 1 0 2 8 2 0
712 1 0 2 7 5 0
932 1 0 2 8 4 0
978 1 1 1 3 8 0
1615 1 1 3 4 4 2
911 1 0 1 4 3 1
1553 1 0 0 9 3 0
1775 1 0 1 3 5 1
410 1 0 2 3 3 4
559 1 0 4 4 3 3
335 1 0 0 9 3 0
1996 1 0 2 7 3 2
1799 1 0 2 4 3 3
672 1 0 3 4 4 1
271 1 0 2 4 6 1
378 1 0 3 5 5 1
1941 1 0 1 4 6 0
1982 1 0 4 6 2 2
1421 1 0 1 5 5 1
1662 1 0 3 6 4 0
1668 1 0 3 3 4 2
1157 1 0 2 4 5 1
1891 1 0 1 7 2 2
1977 1 0 0 10 5 0
1634 1 0 1 8 4 0
190 1 0 2 3 7 0
1064 1 0 2 6 3 2
104 1 0 3 4 4 0
113 1 0 3 5 3 2
2021 1 0 4 4 6 0
140 1 0 2 8 2 0
1666 1 0 2 8 2 0
1798 1 0 0 8 6 0
331 1 0 1 10 2 0
159 1 0 2 7 3 1
1620 1 0 0 9 3 0
403 1 0 3 5 5 1
84 1 0 1 6 5 0
1455 1 0 2 6 5 0
1974 1 0 1 8 5 0
1778 1 0 3 6 2 0
469 1 0 4 1 5 2
738 1 0 1 7 4 2
1921 1 0 2 4 5 1
1274 1 0 0 10 3 0
1316 1 0 3 5 3 2
440 1 0 3 5 3 3
1712 1 0 1 10 2 0
1912 1 0 1 10 2 0
1125 1 0 3 4 5 0
180 1 1 2 7 3 2
179 1 0 2 5 4 1
195 1 0 1 4 3 3
106 1 0 1 8 3 0
169 1 0 2 5 5 0
468 1 0 1 6 5 1
120 1 0 1 8 4 0
405 1 0 2 8 2 0
300 1 0 1 10 2 0
1649 1 0 0 10 3 0
707 1 0 1 10 2 0
2036 1 0 1 8 3 1
1015 1 0 1 7 2 2
308 1 0 3 6 3 2
1733 1 0 5 1 6 2
394 1 0 2 5 3 2
1447 1 0 3 4 6 1
1873 1 0 2 4 4 2
216 1 0 4 4 5 0
2 1 0 0 6 6 1
2042 1 0 1 6 5 0
2017 1 0 1 8 2 2
1091 1 0 1 8 3 1
1772 1 0 1 6 3 0
710 1 0 1 10 3 0
2027 1 0 4 4 6 0
695 1 0 2 8 2 0
1077 1 0 2 7 4 1
210 1 0 2 5 4 0
781 1 0 3 3 5 1
204 1 1 1 4 4 3
438 1 0 1 4 5 1
1964 1 0 1 8 4 0
429 1 0 3 6 5 0
928 1 0 2 5 5 2
1056 1 1 1 3 4 1
374 1 0 3 5 3 2
1462 1 1 1 3 4 3
1976 1 0 2 7 2 2
255 1 0 0 12 2 0
764 1 0 2 5 2 2
129 1 0 0 8 4 0
30 1 0 0 6 6 0
197 1 0 4 4 5 0
740 1 0 3 6 3 0
153 1 0 2 4 7 0
127 1 0 0 10 2 0
363 1 0 2 9 2 1
823 1 0 2 3 6 2
1086 1 0 2 6 5 0
1275 1 0 0 6 6 1
1012 1 0 4 4 4 1
2023 1 0 2 5 3 2
522 1 0 4 4 4 0
1872 1 0 2 5 4 1
294 1 0 4 4 6 0
1052 1 0 2 5 7 0
1543 1 0 0 5 6 0
950 1 0 1 6 6 1
406 1 0 1 7 4 1
769 1 0 3 6 4 0
699 1 0 1 4 8 0
803 1 0 2 6 4 0
1242 1 0 2 2 6 1
1980 1 0 2 6 4 0
676 1 0 1 5 2 3
481 1 1 3 4 5 1
1831 1 0 1 10 3 0
2020 1 0 3 5 5 1
1604 1 0 1 10 2 0
191 1 0 1 8 4 0
202 1 0 0 11 2 0
19 1 0 4 5 4 1
1955 1 0 1 10 2 0
980 1 0 1 8 4 0
501 1 0 1 7 4 1
871 1 0 2 6 5 0
2034 1 0 2 3 5 3
2038 1 0 3 6 4 0
728 1 0 2 4 5 1
813 1 0 5 2 7 1
270 1 0 1 10 2 0
1522 1 0 4 5 4 1
12 1 0 1 10 3 0
17 1 0 2 5 5 0
538 1 0 3 4 6 0
504 1 0 2 4 4 2
753 1 0 3 4 5 1
193 1 0 5 3 3 2
1848 1 0 4 5 3 1
754 1 0 2 6 2 1
1695 1 0 3 6 4 0
1315 1 0 1 4 8 0
170 1 0 1 7 3 2
607 1 0 2 3 6 1
1166 1 0 0 8 4 0
1042 1 0 1 5 2 2
1865 1 0 2 6 4 0
70 1 0 1 10 2 0
1722 1 0 1 7 3 1
1336 1 0 4 4 6 0
1875 1 0 2 4 7 0
282 1 1 3 4 4 1
1329 1 0 0 9 3 0
1302 1 0 1 6 3 2
807 1 0 2 4 5 1
1658 1 0 0 7 3 2
527 1 0 0 12 0 0
333 1 0 3 5 4 1
1046 1 0 2 8 5 0
1944 1 0 2 4 6 0
756 1 0 2 5 4 2
278 1 0 1 10 3 0
774 1 0 1 8 4 0
945 1 0 1 4 5 1
987 1 0 1 7 3 1
82 1 0 2 7 3 2
292 1 0 1 6 6 0
14 1 0 1 8 4 0
611 1 0 1 6 5 1
324 1 0 2 2 4 3
947 1 0 1 9 4 1
64 1 0 0 12 2 0
745 1 0 0 7 4 2
316 1 0 2 8 4 0
563 1 0 1 8 4 1
919 1 0 3 6 5 0
1934 1 0 2 5 5 0
60 1 0 0 8 3 0
1862 1 0 3 3 4 2
345 1 0 3 6 4 0
347 1 0 0 6 4 2
641 1 0 1 7 5 1
1569 1 0 2 6 5 0
674 1 0 2 6 5 1
1360 1 0 1 10 2 0
1116 1 0 0 12 3 0
91 1 0 2 7 4 0
499 1 0 1 10 4 0
1246 1 0 3 6 4 0
332 1 0 0 11 2 0
112 1 0 2 6 5 0
613 1 0 1 8 4 0
412 1 0 2 6 5 0
544 1 0 0 12 0 0
28 1 0 3 6 4 0
325 1 1 2 4 5 1
66 1 0 1 9 5 0
235 1 0 2 6 1 1
1395 1 0 1 10 3 0
711 1 0 0 6 5 0
1953 1 0 3 5 3 2
691 1 0 2 8 2 0
1995 1 0 1 4 5 1
1720 1 1 1 7 2 2
1809 1 0 2 8 4 0
370 1 0 1 10 2 0
83 1 0 3 6 3 1
542 1 0 2 6 4 0
1214 1 0 1 10 3 0
72 1 0 1 8 4 0
387 1 0 0 6 6 0
90 1 0 1 6 7 0
1032 1 0 3 5 4 1
1344 1 0 1 8 4 0
1377 1 0 3 3 4 0
622 1 0 2 3 5 2
423 1 0 1 6 4 0
1570 1 0 0 10 3 0
1149 1 0 2 6 4 0
187 1 0 2 8 2 0
356 1 0 2 5 4 2
1753 1 0 3 6 4 0
123 1 0 3 4 5 0
358 1 0 2 3 5 2
532 1 0 2 5 7 0
1771 1 0 2 8 3 0
915 1 0 1 10 3 0
840 1 0 3 6 5 0
1852 1 0 3 3 6 2
1524 1 0 1 10 2 0
636 1 0 4 4 5 0
632 1 0 2 4 6 1
1626 1 0 2 5 5 2
398 1 0 2 4 4 1
1004 1 0 2 8 2 0
667 1 0 0 9 4 1
1942 1 0 2 6 4 1
221 1 0 0 12 0 0
251 1 0 1 7 4 1
124 1 0 2 8 3 0
486 1 0 3 6 5 0
924 1 0 1 6 5 0
1709 1 0 0 9 3 0
450 1 0 1 4 1 2
1708 1 1 1 3 4 0
100 1 0 2 4 4 2
763 1 0 1 10 4 0
4 1 0 1 8 3 0
1962 1 0 2 6 4 0
97 1 0 3 2 11 0
1895 1 0 3 6 4 0
902 1 0 2 5 6 1
156 1 0 1 8 3 0
1523 1 0 2 4 6 0
137 1 0 1 10 2 0
211 1 0 0 10 2 0
729 1 0 1 9 3 1
147 1 0 1 5 1 2
149 1 0 1 10 2 0
1376 1 0 1 10 2 0
1769 1 0 1 10 4 0
59 1 0 1 8 4 0
130 1 0 1 9 0 2
382 1 0 1 6 3 2
385 1 1 1 8 3 1
1399 1 1 0 9 1 1
1390 1 0 3 4 5 1
1671 1 1 3 2 4 2
1481 1 0 2 6 4 0
1233 1 0 2 5 5 0
136 1 1 3 3 4 2
1747 1 0 2 6 4 0
1992 1 0 1 2 7 1
1846 1 0 2 8 2 0
818 1 0 1 7 3 1
1680 1 0 2 7 4 0
126 1 0 1 5 3 2
414 1 0 1 8 3 1
571 1 0 1 8 4 0
654 1 0 1 7 4 1
166 1 0 2 5 4 0
109 1 0 2 6 5 0
62 1 0 1 7 4 1
683 1 0 0 10 2 1
234 1 1 1 5 5 0
1986 1 0 1 5 5 2
1268 1 0 0 8 4 0
152 1 0 2 8 2 0
913 1 0 2 9 2 1
225 1 0 2 7 3 2
861 1 1 1 4 6 1
737 1 0 4 3 4 3
118 1 1 1 1 5 4
1636 1 0 2 5 3 2
479 1 0 1 2 6 1
502 1 0 2 7 1 3
1987 1 0 4 4 3 3
1864 1 0 2 6 4 0
318 1 0 5 3 5 1
778 1 0 1 7 5 0
1117 1 0 3 5 5 0
2024 1 0 0 12 0 0
286 1 0 2 6 5 0
993 1 0 3 4 4 1
1446 1 0 1 5 4 1
168 1 0 3 3 6 2
1780 1 0 1 8 4 0
236 1 0 1 3 6 0
256 1 0 2 8 2 0
433 1 0 4 4 6 0
935 1 0 2 8 2 0
681 1 0 3 4 7 1
88 1 0 2 6 6 0
373 1 0 0 8 4 0
1484 1 0 3 5 5 1
1803 1 0 1 8 5 0
685 1 0 2 5 4 1
721 1 0 1 9 4 0
474 1 0 3 5 5 1
1146 1 0 0 8 2 2
417 1 0 3 4 6 0
766 1 0 2 6 4 0
1924 1 0 3 4 5 1
264 1 0 2 8 4 0
489 1 0 2 8 3 0
722 1 0 0 10 4 0
748 1 0 0 12 0 0
1869 1 0 2 8 4 0
530 1 0 3 3 4 3
847 1 0 2 3 7 1
1035 1 0 3 4 3 3
842 1 0 0 9 4 0
273 1 0 2 8 2 0
476 1 0 0 10 4 0
1808 1 0 1 8 2 1
690 1 0 1 10 2 0
418 1 0 1 10 3 0
494 1 0 1 8 2 0
570 1 0 3 4 7 0
496 1 0 2 4 8 0
426 1 0 1 8 4 0
2015 1 0 3 4 5 1
810 1 0 3 6 4 0
186 1 0 2 7 2 2
178 1 0 0 10 2 0
1022 1 0 2 8 2 0
209 1 0 2 7 4 1
1280 1 0 0 11 2 0
800 1 0 1 5 4 0
339 1 0 2 5 2 3
1552 1 0 2 8 3 0
176 1 0 2 3 4 2
1510 1 0 2 5 6 0
1031 1 0 2 6 4 0
11 1 0 3 4 5 1
491 1 0 2 6 4 0
519 1 0 4 4 7 0
1612 1 0 5 3 5 1
307 1 0 1 7 5 0
18 1 0 3 6 4 0
1007 1 0 2 8 4 0
27 1 0 3 6 3 0
1238 1 0 3 5 4 1
500 1 0 3 5 6 1
789 1 0 1 6 4 2
1728 1 0 3 6 4 0
1053 1 0 1 4 3 2
1249 1 0 0 5 3 2
246 1 0 2 2 4 5
2039 1 0 2 4 2 4
959 1 0 4 5 4 1
1819 1 1 2 4 6 1
1250 1 0 2 1 5 1
1883 1 0 3 5 5 0
1948 1 0 0 6 6 0
1789 1 0 3 6 3 0
359 1 0 1 10 3 0
303 1 0 2 6 5 0
1264 1 0 0 12 0 0
996 1 0 1 10 2 0
1362 1 0 1 8 3 0
586 1 0 1 9 4 0
962 1 0 1 6 4 0
525 1 0 2 6 5 0
556 1 0 1 10 2 1
114 1 0 2 6 4 0
791 1 0 0 8 4 1
579 1 0 0 10 2 0
631 1 0 1 7 3 2
1504 1 0 0 9 3 0
1113 1 0 1 8 4 0
497 1 0 1 8 3 0
567 1 0 1 6 5 1
546 1 0 0 10 3 1
424 1 0 2 4 4 2
1081 1 0 2 6 6 0
293 1 0 2 6 5 0
894 1 0 1 8 3 1
512 1 1 3 6 2 3
29 1 0 1 6 4 0
350 1 1 1 8 3 1
649 1 0 1 8 4 0
1374 1 0 1 8 4 0
1247 1 0 3 5 5 1
1066 1 0 0 10 2 0
825 1 0 3 5 2 2
859 1 0 3 4 6 0
885 1 0 1 7 4 2
1940 1 1 2 3 4 2
148 1 0 1 5 6 0
1874 1 0 3 6 5 0
55 1 0 2 4 6 0
594 1 0 0 10 4 0
1345 1 0 2 6 5 0
1822 1 0 1 7 3 1
53 1 0 2 6 3 1
970 1 0 3 5 5 1
1401 1 0 1 5 4 1
150 1 0 1 3 5 1
661 1 0 1 8 2 0
549 1 0 1 8 4 0
291 1 0 2 8 3 0
898 1 0 1 9 4 0
1098 1 0 3 5 3 3
612 1 0 1 8 4 0
1135 1 0 3 3 6 1
1326 1 0 1 10 3 0
788 1 0 3 7 4 1
342 1 1 2 5 2 2
752 1 0 0 9 3 0
853 1 0 1 5 4 0
602 1 0 2 5 3 2
735 1 0 4 3 5 2
1420 1 0 2 6 3 1
558 1 0 1 8 4 0
741 1 0 2 6 4 0
1497 1 0 2 6 4 0
1270 1 0 3 4 4 3
730 1 0 0 10 3 0
315 1 0 1 8 1 0
413 1 0 0 10 3 1
445 1 0 2 6 7 0
581 1 0 0 10 2 0
1782 1 0 2 8 3 0
651 1 0 1 8 4 1
697 1 0 0 8 4 0
1562 1 0 1 6 3 1
145 1 0 3 3 6 1
1892 1 0 2 8 2 0
616 1 0 2 8 4 0
609 1 0 2 4 6 1
98 1 0 1 10 3 0
1723 1 0 2 6 4 0
838 1 0 0 8 2 2
751 1 1 1 6 5 1
354 1 0 3 4 6 0
717 1 0 1 10 2 0
1907 1 0 4 2 6 0
1409 1 0 4 2 6 0
588 1 1 3 1 4 2
880 1 0 1 4 8 0
860 1 0 2 8 3 0
916 1 0 4 2 4 1
1103 1 0 1 4 6 1
1692 1 0 2 6 5 1
1215 1 0 1 8 2 0
985 1 0 4 3 6 0
798 1 0 2 5 4 0
629 1 0 2 3 5 0
421 1 1 2 4 5 1
600 1 0 1 10 2 0
1092 1 0 0 8 6 0
1370 1 0 2 7 4 1
1213 1 0 1 10 2 0
1237 1 1 2 2 6 1
1468 1 0 2 3 3 2
1433 1 0 1 4 5 2
162 1 0 0 10 2 0
870 1 0 1 10 3 0
1381 1 0 3 4 1 2
1545 1 0 4 4 4 0
1763 1 0 1 8 4 0
990 1 0 3 6 4 0
1929 1 0 1 4 6 0
207 1 0 1 10 5 0
393 1 0 0 10 4 0
1147 1 0 1 10 3 0
1743 1 0 3 6 4 0
703 1 0 2 8 2 0
1943 1 1 1 7 2 1
706 1 0 1 3 4 3
562 1 1 2 6 2 1
1752 1 0 2 4 7 1
785 1 0 5 2 3 3
877 1 0 3 7 4 1
471 1 0 1 10 2 0
1464 1 0 2 7 5 1
895 1 0 0 12 0 0
650 1 0 2 5 2 2
1191 1 0 3 6 4 1
1019 1 0 2 6 4 1
1676 1 0 2 6 3 0
986 1 0 1 7 2 1
835 1 0 3 4 5 1
360 1 0 1 2 4 3
241 1 0 2 5 4 2
1727 1 0 2 7 4 1
344 1 0 0 8 4 1
1539 1 0 3 3 6 0
411 1 0 2 4 6 0
693 1 0 2 3 7 0
488 1 0 2 1 9 0
40 1 0 3 6 4 0
1178 1 0 1 8 4 0
1139 1 0 1 8 4 0
22 1 0 3 5 2 2
957 1 0 2 6 6 0
2011 1 0 2 6 5 1
787 1 0 2 8 3 0
663 1 0 1 10 2 0
163 1 0 4 4 6 0
949 1 0 2 6 6 0
731 1 0 2 7 5 1
1244 1 0 2 4 4 1
1498 1 0 2 8 2 0
510 1 0 0 8 4 1
704 1 0 4 4 4 0
167 1 0 1 7 5 0
200 1 0 1 10 3 0
831 1 0 2 6 6 0
422 1 0 1 7 5 0
1388 1 0 3 3 4 2
1750 1 0 1 10 4 0
965 1 0 3 6 4 0
876 1 0 1 7 2 3
1641 1 0 1 8 2 0
266 1 0 5 1 5 2
473 1 0 2 5 4 1
1158 1 0 2 8 4 0
101 1 0 2 5 4 1
553 1 0 1 7 4 1
956 1 0 1 8 4 0
777 1 0 2 8 5 0
219 1 1 1 7 3 0
492 1 0 3 5 5 1
1714 1 0 0 7 6 1
1184 1 0 2 7 2 2
989 1 0 0 10 2 0
420 1 0 3 6 5 0
1279 1 0 3 6 5 0
968 1 0 0 7 3 1
955 1 0 2 8 4 0
793 1 0 2 6 5 0
982 1 0 1 8 4 0
963 1 0 0 12 0 0
899 1 0 2 6 3 2
227 1 0 1 8 4 1
520 1 0 0 6 5 0
966 1 0 3 3 5 0
865 1 0 1 9 4 1
453 1 0 1 8 2 0
727 1 0 1 9 2 2
285 1 0 4 4 5 0
290 1 0 3 6 5 0
1230 1 0 0 12 2 0
1456 1 0 3 6 4 0
2008 1 0 3 6 4 0
277 1 0 0 6 5 1
653 1 0 0 12 0 0
1300 1 0 0 9 3 0
1013 1 0 1 5 4 2
1340 1 0 0 9 3 0
666 1 0 4 4 8 0
897 1 0 4 2 3 3
797 1 0 3 4 5 0
1516 1 0 1 7 5 0
299 1 0 3 6 4 0
1317 1 0 2 8 2 0
568 1 0 3 6 3 1
868 1 0 3 7 3 0
775 1 0 2 6 3 1
1802 1 0 1 3 6 0
621 1 0 0 8 4 1
907 1 0 2 6 6 0
819 1 0 3 6 4 0
918 1 0 3 6 3 0
997 1 0 3 5 2 2
796 1 1 2 3 4 2
584 1 0 1 6 4 2
936 1 0 0 10 3 0
1800 1 0 1 8 3 0
772 1 0 2 5 4 2
767 1 0 2 3 5 1
801 1 0 2 2 5 2
1308 1 0 5 3 3 1
1058 1 0 2 5 2 2
736 1 0 4 3 4 1
1367 1 0 1 7 4 1
305 1 0 2 6 5 0
1561 1 0 3 5 4 1
713 1 0 3 5 3 1
839 1 0 2 4 6 0
44 1 0 1 6 5 0
1104 1 0 2 7 4 0
829 1 0 1 10 4 0
572 1 0 1 6 3 1
1193 1 0 1 8 4 0
771 1 0 1 10 2 0
107 1 0 0 10 2 0
1011 1 0 2 6 5 0
1617 1 0 2 5 5 0
1474 1 0 1 8 5 0
2032 1 0 0 8 5 0
1192 1 0 0 9 2 1
1010 1 0 2 6 4 0
1621 1 0 1 10 2 0
125 1 0 4 3 5 2
1758 1 0 1 7 3 1
890 1 0 4 3 4 1
1222 1 0 1 2 6 1
214 1 0 2 4 5 1
792 1 0 2 5 3 2
1650 1 0 2 7 5 1
1437 1 0 3 4 6 0
773 1 1 2 6 3 2
1254 1 0 1 8 4 0
1893 1 0 0 10 5 0
1263 1 0 3 6 4 0
1796 1 0 3 4 4 2
1467 1 0 2 8 2 0
841 1 0 3 6 6 0
1598 1 0 2 5 4 1
1904 1 0 0 12 2 0
659 1 0 3 6 4 0
812 1 0 0 12 0 0
1439 1 0 4 4 5 0
1131 1 0 1 10 4 0
533 1 0 3 4 6 0
608 1 0 2 8 2 0
856 1 0 2 8 4 0
866 1 0 2 6 4 0
280 1 0 1 5 5 0
640 1 0 1 8 4 0
757 1 0 0 7 5 1
1465 1 0 3 3 5 2
882 1 0 1 10 2 0
232 1 0 3 6 4 0
543 1 0 1 6 5 1
1278 1 0 2 6 4 1
843 1 1 0 9 3 0
1405 1 0 2 4 5 1
1090 1 0 2 5 4 2
1705 1 1 2 4 5 1
389 1 0 1 10 2 0
701 1 0 5 2 2 4
875 1 0 1 10 2 0
1153 1 0 3 2 7 2
1276 1 0 2 6 7 0
396 1 0 6 1 2 4
1555 1 0 5 2 6 0
1137 1 0 2 5 3 1
1779 1 0 2 5 3 3
845 1 0 4 4 4 3
760 1 0 3 6 4 0
662 1 0 2 5 4 0
281 1 0 0 12 0 0
583 1 0 3 3 6 1
574 1 1 2 8 1 3
343 1 0 1 8 4 1
874 1 0 3 4 5 0
351 1 0 1 5 2 3
1060 1 0 2 5 3 1
1185 1 0 1 3 1 3
577 1 0 2 6 6 0
371 1 0 2 7 4 1
1070 1 0 3 6 3 0
964 1 0 1 10 2 0
678 1 0 0 10 4 0
390 1 0 1 7 2 2
110 1 0 2 8 2 0
1225 1 0 1 8 3 2
686 1 0 3 4 5 1
368 1 0 4 2 6 1
296 1 1 2 5 2 2
192 1 0 3 5 4 2
642 1 0 2 8 3 0
1358 1 0 0 10 6 0
362 1 0 1 7 2 3
664 1 0 0 12 0 0
439 1 0 1 8 3 1
1202 1 0 0 6 5 2
529 1 0 3 7 3 1
855 1 0 2 6 5 1
1082 1 0 4 4 3 0
1182 1 0 2 3 6 0
399 1 0 3 2 5 1
392 1 0 1 6 5 1
610 1 1 4 3 2 2
891 1 0 0 7 4 1
1200 1 0 2 5 4 1
1190 1 0 0 9 3 1
1422 1 0 3 4 2 2
1544 1 0 2 6 4 0
1969 1 0 3 4 5 1
637 1 0 1 6 4 3
1472 1 0 1 6 3 2
480 1 0 1 6 5 1
1297 1 0 0 7 4 1
1033 1 0 1 5 6 0
1868 1 0 4 4 4 0
52 1 0 1 6 7 0
623 1 0 1 5 6 1
931 1 0 2 4 7 0
1266 1 0 2 8 3 0
643 1 0 2 5 6 1
203 1 0 1 4 5 1
1253 1 0 2 6 5 0
733 1 0 1 7 4 1
1611 1 0 3 7 5 1
459 1 0 1 10 3 0
961 1 0 0 10 4 0
327 1 0 1 10 3 0
958 1 0 1 8 5 0
790 1 0 3 4 6 0
580 1 0 0 10 2 0
475 1 0 2 6 5 0
900 1 0 2 7 3 1
1217 1 0 3 5 2 2
1257 1 0 0 8 6 1
615 1 0 1 10 2 0
1209 1 0 1 2 8 0
173 1 0 1 7 4 0
552 1 0 3 6 4 1
905 1 0 1 8 3 0
1243 1 0 1 7 4 0
1681 1 0 1 3 4 2
606 1 0 1 5 5 0
340 1 0 0 7 3 3
1039 1 0 0 9 3 0
505 1 0 2 2 7 1
930 1 0 2 5 2 3
1118 1 1 2 4 3 2
349 1 0 1 8 4 1
449 1 0 1 9 2 2
1958 1 0 2 8 2 0
1429 1 0 2 5 5 0
635 1 1 4 1 2 2
648 1 0 4 4 6 0
146 1 0 3 6 5 0
1021 1 0 3 5 3 2
1973 1 0 1 10 2 0
128 1 0 1 8 3 0
432 1 0 2 6 2 3
780 1 0 2 6 4 0
846 1 0 4 2 5 1
1255 1 0 2 2 4 5
460 1 0 0 9 3 0
592 1 0 1 10 2 0
428 1 0 1 8 4 0
355 1 0 2 8 2 0
263 1 0 4 3 6 0
208 1 0 3 4 2 2
714 1 0 1 5 3 3
848 1 0 3 5 3 2
626 1 0 1 6 4 0
634 1 0 3 6 3 0
1124 1 0 1 10 2 0
786 1 0 2 4 4 1
976 1 0 0 10 4 0
404 1 1 4 3 5 2
1194 1 0 1 10 3 0
1024 1 1 1 4 3 2
1434 1 0 1 5 4 1
768 1 0 1 10 2 0
758 1 0 1 6 5 1
929 1 0 3 7 3 1
249 1 0 2 8 1 0
926 1 0 2 8 5 0
1174 1 0 3 4 4 2
744 1 0 2 7 2 1
75 1 0 1 7 4 1
1068 1 0 1 7 5 2
817 1 0 2 7 2 2
1698 1 0 4 3 5 1
824 1 0 2 4 5 1
1219 1 0 3 6 4 0
942 1 0 2 9 2 1
483 1 0 3 3 4 2
1748 1 0 1 8 3 0
625 1 0 3 4 7 0
1454 1 0 0 6 5 1
1324 1 0 2 8 5 0
526 1 0 2 6 3 3
487 1 1 0 9 3 0
910 1 0 1 5 5 1
1335 1 0 2 5 3 1
723 1 0 5 2 6 1
1847 1 0 2 6 4 1
1020 1 0 2 1 6 2
1534 1 0 2 4 5 1
1721 1 0 1 6 7 0
1471 1 0 0 10 3 0
645 1 0 2 9 3 1
2041 1 0 5 1 3 3
1311 1 0 3 5 3 1
597 1 0 0 10 2 1
879 1 0 0 12 0 0
1095 1 0 0 12 0 0
521 1 0 0 12 3 0
1321 1 0 0 10 3 0
833 1 0 0 8 3 0
1304 1 0 2 8 3 0
1490 1 0 1 9 0 2
944 1 0 0 10 3 0
715 1 0 1 10 2 0
1319 1 0 1 6 6 0
599 1 0 2 8 4 0
943 1 0 3 3 6 2
1354 1 0 0 12 0 0
336 1 0 1 5 3 1
1099 1 0 1 4 5 2
951 1 0 4 4 5 2
1505 1 0 1 5 6 1
892 1 0 2 3 3 2
921 1 0 0 6 3 3
1071 1 0 2 6 3 1
762 1 0 2 6 3 1
1528 1 0 3 4 7 0
1130 1 0 1 8 1 0
1281 1 0 3 6 6 0
1145 1 0 1 10 2 0
806 1 0 0 12 2 0
1054 1 0 0 10 2 0
903 1 0 1 10 4 0
1127 1 0 0 12 2 0
1294 1 0 0 12 3 0
1501 1 0 0 10 2 0
590 1 0 1 10 2 0
1325 1 0 1 4 6 1
1114 1 0 1 8 3 0
688 1 0 3 5 4 1
1168 1 0 3 5 4 1
893 1 0 1 9 3 0
1110 1 0 3 4 5 0
1529 1 0 2 6 4 0
1443 1 0 2 7 2 2
914 1 0 0 7 3 2
881 1 0 2 3 4 3
1245 1 0 3 5 3 2
1028 1 0 1 10 2 0
869 1 0 3 5 4 2
1307 1 0 1 10 5 0
1079 1 0 0 8 4 0
407 1 0 1 8 6 0
2003 1 0 2 8 1 0
119 1 0 2 8 2 0
669 1 1 1 8 3 1
585 1 0 0 11 4 0
1159 1 0 2 8 2 0
103 1 1 1 8 3 1
1781 1 0 2 7 3 1
357 1 0 1 10 2 0
1186 1 0 2 4 4 2
323 1 0 2 7 2 2
261 1 0 2 8 4 0
1061 1 0 0 8 4 0
77 1 0 2 5 2 2
983 1 0 1 8 4 0
821 1 0 4 4 6 0
851 1 0 0 7 4 1
1161 1 0 3 6 2 3
1601 1 0 4 3 2 4
1271 1 0 1 8 3 1
1122 1 0 2 8 3 0
1221 1 0 1 7 2 2
1006 1 0 2 5 3 2
1625 1 0 2 5 3 2
587 1 0 4 2 6 0
321 1 0 3 5 2 2
269 1 0 3 4 5 0
1628 1 0 2 6 4 0
353 1 0 0 10 5 0
1120 1 0 1 6 6 0
143 1 1 0 9 3 0
1540 1 0 3 4 6 0
157 1 0 1 10 1 2
872 1 0 2 8 5 0
920 1 0 0 12 0 0
1425 1 0 2 8 2 0
1731 1 0 3 6 4 2
569 1 0 2 8 2 0
1062 1 0 2 5 5 0
9 1 0 5 1 6 1
1963 1 0 1 5 6 1
1517 1 0 2 6 3 2
1580 1 0 4 2 2 4
1449 1 0 1 3 1 6
1160 1 0 4 4 2 3
873 1 0 3 7 4 2
1284 1 0 2 4 6 0
857 1 0 0 9 3 0
76 1 0 2 6 4 0
1106 1 0 1 10 4 0
1558 1 0 2 6 3 1
1361 1 0 1 7 5 0
132 1 0 1 7 4 1
1089 1 0 2 7 3 0
836 1 0 2 8 2 0
448 1 0 2 6 5 0
1211 1 0 1 6 4 1
1283 1 1 2 6 3 1
1640 1 0 0 8 3 1
89 1 0 3 6 4 0
923 1 0 1 6 5 0
975 1 0 2 8 4 0
908 1 1 4 1 1 4
1350 1 1 2 6 2 2
992 1 0 3 5 4 2
555 1 0 2 7 4 2
922 1 0 3 2 5 2
1196 1 0 2 4 6 0
954 1 0 1 8 4 0
1488 1 0 2 4 5 0
1536 1 0 2 6 5 0
888 1 0 1 8 3 0
310 1 0 0 10 2 0
80 1 0 1 8 4 1
1554 1 0 2 5 3 2
1724 1 0 2 7 2 2
668 1 0 1 5 5 2
862 1 0 3 5 3 2
1290 1 0 3 4 6 0
287 1 0 3 4 5 1
1788 1 0 4 4 6 0
1337 1 0 2 8 3 0
656 1 0 4 4 6 0
1469 1 1 1 7 2 2
624 1 0 0 5 2 3
484 1 0 0 12 0 0
1002 1 0 2 7 4 2
1419 1 0 3 6 6 0
906 1 0 1 8 4 0
1413 1 0 1 6 7 0
1181 1 0 4 5 4 1
408 1 0 3 6 3 0
917 1 0 1 6 5 0
1913 1 0 3 5 4 0
1531 1 0 2 8 4 0
948 1 0 0 8 4 0
1928 1 0 3 6 4 0
601 1 0 1 8 2 0
1273 1 0 1 6 5 0
1475 1 0 4 4 6 0
1183 1 0 2 6 5 0
646 1 0 2 4 6 0
1240 1 0 2 8 3 0
1220 1 0 3 6 5 0
1479 1 0 2 3 5 1
940 1 0 1 7 2 2
837 1 0 2 8 4 0
443 1 0 1 10 2 0
720 1 0 1 8 4 1
1314 1 0 0 12 2 0
811 1 0 1 10 2 0
1542 1 0 1 9 2 1
13 1 0 3 6 4 0
716 1 0 1 8 4 0
1486 1 0 2 4 7 0
1048 1 0 1 8 2 0
850 1 0 0 5 6 1
171 1 0 0 9 3 0
1739 1 0 1 6 4 1
1277 1 0 2 4 6 0
1073 1 0 1 8 3 1
1438 1 0 1 8 0 2
1487 1 0 3 4 6 0
1203 1 0 2 6 3 3
472 1 0 2 8 4 0
1267 1 0 2 4 6 0
960 1 0 1 5 5 1
1785 1 0 2 4 5 3
388 1 0 1 9 2 1
1500 1 0 2 4 5 1
1085 1 0 2 8 4 0
1754 1 0 3 4 6 1
1151 1 0 6 2 4 2
1576 1 0 2 6 5 0
1368 1 1 1 7 2 2
1496 1 0 1 6 5 0
1047 1 0 2 8 4 0
1588 1 1 3 4 5 1
116 1 0 0 8 2 2
1559 1 0 0 10 2 0
1208 1 0 0 12 2 0
746 1 0 1 10 3 0
1107 1 0 2 7 2 2
747 1 0 3 4 7 0
1051 1 0 3 4 6 0
988 1 0 2 8 4 0
834 1 0 2 5 3 2
1083 1 0 1 8 5 0
657 1 0 0 10 2 0
927 1 0 3 6 6 0
830 1 0 2 6 3 0
1087 1 0 0 7 3 1
795 1 0 3 6 7 0
322 1 0 3 3 2 4
1729 1 0 1 10 4 0
1229 1 0 2 6 4 0
391 1 1 3 2 4 2
884 1 0 2 8 4 0
1742 1 0 1 8 3 1
1287 1 0 1 6 3 1
1014 1 0 0 8 5 0
482 1 0 2 6 5 0
591 1 0 2 6 4 0
816 1 0 1 6 6 0
1109 1 0 1 7 4 0
1518 1 0 0 5 2 3
759 1 0 2 6 4 0
1262 1 0 2 3 5 1
933 1 0 0 9 3 0
2033 1 0 2 3 4 2
541 1 0 1 8 4 0
1521 1 0 1 6 6 0
886 1 0 2 6 4 0
1212 1 0 2 4 6 1
1258 1 0 1 6 6 0
1239 1 0 2 6 3 0
1746 1 0 1 8 6 0
1526 1 0 2 6 3 2
1606 1 0 1 3 5 3
528 1 0 0 10 4 0
1030 1 0 2 6 5 1
1289 1 0 1 7 3 1
1551 1 0 0 10 3 0
464 1 0 0 12 0 0
1235 1 0 0 12 3 0
946 1 0 1 8 4 0
1485 1 0 0 10 2 0
1786 1 0 0 7 6 0
1684 1 0 1 9 4 0
1765 1 0 1 6 5 0
25 1 0 2 6 6 0
1535 1 0 3 3 6 0
1088 1 0 1 8 4 0
1565 1 0 2 6 3 1
1825 1 0 1 7 5 1
1914 1 0 1 8 5 0
1894 1 0 1 6 5 0
995 1 0 2 6 4 0
925 1 0 2 6 4 0
1857 1 0 3 7 2 1
1386 1 0 0 7 2 2
854 1 0 1 9 2 2
1600 1 0 3 3 5 2
1363 1 0 1 7 3 1
1133 1 0 3 4 5 1
1041 1 0 2 8 4 0
1063 1 0 3 6 5 0
573 1 0 1 7 5 0
1309 1 0 1 7 4 1
1105 1 0 1 10 2 0
1393 1 0 0 12 0 0
1632 1 0 2 8 2 0
1037 1 0 2 6 4 0
828 1 0 1 10 2 0
260 1 0 1 8 6 0
576 1 0 1 7 6 0
2010 1 0 1 8 3 1
1814 1 0 3 5 5 0
598 1 0 1 10 2 0
1050 1 0 2 6 4 0
545 1 0 2 6 4 0
618 1 0 3 5 2 2
1725 1 0 3 3 5 2
1920 1 0 1 6 6 0
65 1 0 3 6 3 0
896 1 0 1 10 2 0
1623 1 0 3 4 5 1
1861 1 0 2 4 4 0
1639 1 0 4 0 6 0
652 1 0 1 7 5 0
1793 1 0 1 6 7 0
1402 1 0 2 6 3 1
934 1 0 1 8 4 0
1610 1 0 3 6 4 0
218 1 0 1 6 6 0
1403 1 0 3 6 4 0
508 1 0 3 6 3 0
815 1 0 1 8 3 1
1072 1 0 1 8 4 0
20 1 0 1 10 2 0
1075 1 0 0 10 5 0
1761 1 0 2 3 3 3
444 1 0 1 8 3 1
675 1 0 2 6 5 0
317 1 1 1 4 3 1
582 1 0 0 9 3 0
1408 1 0 1 8 5 0
1195 1 0 1 7 5 0
909 1 0 4 4 5 0
326 1 0 2 4 5 1
1129 1 0 1 6 5 0
1162 1 0 3 6 4 0
1198 1 0 4 4 6 0
1121 1 0 2 2 4 5
306 1 0 2 4 3 3
1136 1 0 5 1 4 3
463 1 0 0 7 3 1
1341 1 0 0 12 0 0
1096 1 0 0 12 0 0
627 1 0 0 12 2 0
1055 1 0 0 12 4 0
2045 1 0 3 6 4 0
1645 1 0 1 9 2 1
1252 1 0 4 2 5 1
1067 1 0 3 4 7 0
184 1 0 4 2 6 0
1210 1 0 2 4 7 0
1849 1 0 2 6 4 0
814 1 0 0 10 2 0
223 1 0 1 10 2 0
578 1 0 2 8 3 0
1426 1 0 2 6 5 0
1378 1 0 0 12 0 0
878 1 0 3 5 4 0
1292 1 0 1 6 6 0
1829 1 0 2 4 6 0
1732 1 0 3 2 5 2
1169 1 0 2 6 5 0
765 1 0 1 6 6 0
749 1 1 3 4 5 1
689 1 0 3 4 3 1
1597 1 0 3 4 9 0
994 1 0 0 12 0 0
1480 1 0 1 6 3 1
647 1 0 1 5 5 0
852 1 0 3 4 6 0
1897 1 1 1 5 5 0
1396 1 0 0 10 3 1
1138 1 0 3 4 8 0
1594 1 0 1 10 3 1
655 1 0 2 7 3 1
1463 1 0 3 6 3 0
770 1 0 2 3 7 0
1910 1 0 1 6 6 0
1635 1 0 1 6 8 0
1947 1 0 2 4 5 1
1646 1 0 1 6 6 0
1706 1 0 2 4 5 1
1939 1 0 3 1 4 2
971 1 0 4 4 5 0
1298 1 0 2 8 3 0
230 1 0 2 3 4 2
1296 1 0 4 3 4 2
1364 1 0 1 7 2 1
1450 1 2 2 3 3 2
233 1 0 3 6 3 0
1978 1 0 2 6 4 1
1493 1 0 3 5 3 2
1197 1 0 1 10 4 0
35 1 0 2 6 6 0
1710 1 0 3 4 4 1
858 1 0 2 6 4 0
1858 1 0 1 6 6 1
1584 1 1 2 2 6 0
889 1 0 1 10 3 0
1735 1 0 2 4 6 1
1299 1 0 1 7 5 2
1777 1 0 2 4 6 0
105 1 0 3 6 4 0
2006 1 0 1 5 4 1
1445 1 0 0 7 4 1
217 1 0 4 1 6 2
984 1 0 1 7 4 0
328 1 0 3 6 4 0
1945 1 0 0 6 3 1
1824 1 0 2 5 5 0
1187 1 0 2 3 6 0
619 1 0 2 6 4 2
384 1 0 0 10 3 1
1226 1 0 1 7 5 0
1029 1 0 1 7 5 0
1044 1 0 3 4 5 1
941 1 0 2 8 4 0
972 1 0 0 12 0 0
658 1 0 0 9 3 1
1310 1 0 2 5 3 3
1045 1 0 0 10 2 1
969 1 0 2 4 6 0
1207 1 0 1 5 7 0
540 1 0 2 8 4 0
1430 1 0 2 7 3 1
799 1 0 1 6 3 1
1461 1 0 1 8 2 0
2035 1 0 2 6 3 1
1547 1 0 1 5 5 0
1017 1 0 2 7 3 1
638 1 0 3 6 7 0
1711 1 0 0 10 2 0
252 1 0 2 7 2 1
999 1 0 0 5 4 3
1582 1 1 1 5 4 3
1548 1 0 2 5 2 3
1736 1 0 1 8 4 0
630 1 0 2 4 4 2
708 1 0 2 3 6 1
457 1 1 3 5 4 2
680 1 0 2 8 3 0
718 1 0 0 9 4 0
1583 1 0 2 8 4 0
939 1 0 2 8 2 0
1111 1 0 2 6 3 3
1394 1 0 2 6 3 1
1176 1 0 1 8 3 1
589 1 0 3 6 5 0
1432 1 0 2 2 10 0
1261 1 0 0 10 3 0
1587 1 0 3 6 4 0
1823 1 0 3 7 4 1
1009 1 0 2 6 8 0
31 1 0 3 7 2 1
1764 1 0 3 4 5 0
1141 1 0 0 8 6 0
513 1 0 1 8 3 0
42 1 0 1 10 2 0
1016 1 0 1 4 6 0
470 1 0 3 5 4 1
1338 1 0 1 8 4 0
1112 1 0 2 6 6 0
5 1 0 2 8 4 0
275 1 0 2 6 3 1
1508 1 0 2 3 7 0
1950 1 0 0 3 9 0
1059 1 0 1 8 2 1
1591 1 0 0 12 2 0
1201 1 0 2 8 4 0
1272 1 0 1 7 3 1
1398 1 0 2 6 3 0
1216 1 0 1 8 5 0
247 1 0 2 4 7 0
1156 1 0 0 9 4 0
85 1 0 0 8 4 0
477 1 0 3 6 4 0
1260 1 0 1 8 6 0
991 1 0 3 6 3 0
1078 1 0 4 4 4 0
1815 1 0 4 4 3 3
1436 1 0 2 8 1 0
1084 1 0 2 8 4 1
383 1 0 2 5 5 0
1387 1 0 3 5 4 1
2014 1 0 4 3 4 2
1546 1 0 4 4 4 0
1642 1 0 4 2 8 0
226 1 0 1 8 5 0
1566 1 0 1 8 4 0
684 1 0 3 5 6 1
973 1 0 3 6 4 0
15 1 0 0 10 4 0
761 1 0 2 6 2 2
1352 1 0 1 10 2 0
301 1 1 1 4 4 2
1167 1 0 1 8 3 0
1810 1 0 4 5 3 1
1900 1 0 0 7 5 1
1792 1 0 2 8 2 0
1330 1 0 0 12 0 0
253 1 0 1 7 5 0
1525 1 0 0 11 4 0
1285 1 0 0 7 5 0
1909 1 0 1 10 3 0
54 1 0 2 8 1 0
121 1 0 1 10 2 0
863 1 0 1 10 3 0
1827 1 0 2 6 4 0
1578 1 0 4 2 8 0
272 1 0 2 8 4 0
189 1 0 1 6 4 1
802 1 1 3 3 3 1
401 1 0 4 2 6 0
1653 1 0 1 6 4 1
1094 1 0 2 4 6 0
376 1 0 1 5 7 1
1619 1 0 4 4 4 0
2037 1 0 2 6 4 0
2044 1 0 2 5 5 1
1794 1 0 1 8 5 0
48 1 0 2 4 5 0
1353 1 0 2 7 3 1
1369 1 0 1 6 3 0
1647 1 0 0 8 3 0
826 1 0 1 10 3 0
320 1 0 1 6 3 1
1023 1 0 1 8 5 0
1342 1 0 1 7 4 2
1400 1 0 0 10 2 0
1339 1 0 2 8 2 0
1989 1 0 0 10 3 0
1842 1 0 2 4 5 1
1884 1 0 0 12 0 0
677 1 0 2 8 5 0
1719 1 0 1 6 4 2
1630 1 1 1 7 5 0
1288 1 0 1 7 3 2
1414 1 0 3 5 4 1
1410 1 0 2 4 6 0
1375 1 0 5 2 6 0
1142 1 1 1 4 3 2
1651 1 0 3 6 4 0
1644 1 0 3 4 6 0
1906 1 0 3 7 3 1
1560 1 0 1 5 7 0
10 1 0 0 7 4 1
1356 1 0 3 1 8 1
194 1 0 0 8 3 1
1768 1 0 3 3 4 2
1683 1 0 3 6 4 0
379 1 0 1 10 4 0
1134 1 0 0 12 0 0
1826 1 0 3 4 6 0
1988 1 0 0 12 3 0
1860 1 0 0 12 0 0
1783 1 1 2 5 5 0
1870 1 0 2 6 3 1
284 1 0 3 3 3 3
34 1 0 3 6 4 0
1144 1 0 2 4 6 2
1355 1 0 3 7 4 1
1080 1 0 3 4 4 1
1700 1 0 3 4 5 1
1654 1 0 1 8 5 1
1477 1 0 0 10 3 1
1660 1 0 5 2 6 0
8 1 0 2 6 2 1
1373 1 0 2 3 5 1
952 1 1 1 8 3 1
366 1 0 1 5 4 2
1417 1 0 3 6 4 0
779 1 0 4 5 5 1
1888 1 0 1 7 3 0
1509 1 0 1 7 3 1
566 1 0 2 5 4 1
1675 1 0 1 7 2 1
1853 1 0 2 6 4 0
1677 1 0 1 8 5 0
415 1 0 2 5 4 1
352 1 0 2 4 6 0
883 1 0 4 4 6 0
1404 1 0 2 6 4 1
1931 1 0 3 6 6 0
673 1 0 2 4 4 3
1466 1 0 2 8 2 0
108 1 0 0 7 5 0
1880 1 0 2 8 5 0
314 1 0 2 6 6 0
1175 1 0 3 6 4 0
1380 1 0 1 7 5 0
1100 1 0 0 7 5 1
700 1 0 4 3 5 2
1738 1 0 2 7 3 2
175 1 0 0 6 4 2
509 1 0 2 8 2 0
1715 1 0 3 5 7 1
605 1 0 1 6 3 2
564 1 0 1 6 4 0
341 1 0 2 8 4 0
820 1 0 3 4 5 0
1069 1 0 2 4 5 2
1093 1 0 1 9 3 1
1483 1 0 0 7 5 0
1656 1 0 2 6 5 0
1937 1 0 2 6 3 1
1762 1 0 3 4 3 3
1423 1 0 2 6 5 0
1232 1 0 1 7 5 1
478 1 0 3 5 5 0
1717 1 0 3 2 6 1
1983 1 0 5 0 8 0
1428 1 0 3 2 5 1
967 1 0 1 9 4 1
1204 1 0 3 6 5 0
1248 1 0 3 6 4 0
1119 1 0 1 7 3 2
1669 1 0 2 6 4 0
679 1 0 2 6 6 0
1925 1 0 3 6 6 0
1556 1 0 1 6 2 4
1898 1 0 0 8 3 1
912 1 0 3 3 5 1
1737 1 0 3 6 5 0
1998 1 0 3 4 5 0
1688 1 0 3 4 3 2
1703 1 0 0 5 6 1
1205 1 0 2 3 5 1
1172 1 0 3 4 4 1
400 1 0 3 5 5 1
1678 1 0 3 5 3 2
1627 1 0 2 7 4 2
1173 1 0 4 4 4 0
1713 1 0 5 3 3 2
485 1 0 0 9 2 2
231 1 0 2 4 5 0
1448 1 0 5 1 5 2
1685 1 0 2 7 2 2
1833 1 0 4 5 5 1
904 1 0 1 6 4 2
1726 1 0 3 4 6 0
1256 1 0 0 12 0 0
1444 1 0 1 9 3 0
1837 1 0 0 12 3 0
1665 1 1 2 3 5 1
2022 1 0 2 5 5 0
165 1 0 3 2 4 2
518 1 1 2 4 5 1
1143 1 0 3 5 2 2
490 1 0 2 4 4 2
2028 1 0 4 3 4 0
427 1 0 2 7 2 0
1318 1 0 2 3 2 3
1938 1 0 1 5 3 3
1506 1 0 1 8 4 0
372 1 0 1 8 3 1
1767 1 0 2 7 3 1
1817 1 0 2 8 2 0
953 1 0 0 8 4 0
1745 1 0 0 9 5 0
1574 1 0 2 8 3 0
1494 1 0 1 8 4 0
827 1 0 2 6 5 0
1476 1 0 2 8 4 0
1154 1 0 1 2 7 1
1530 1 0 4 2 7 1
161 1 1 1 3 5 1
1313 1 0 0 6 8 1
1801 1 0 3 6 3 0
1511 1 1 2 3 3 4
1416 1 0 3 2 6 2
1770 1 0 2 5 3 2
1590 1 0 3 3 4 2
1005 1 0 2 8 4 0
1295 1 0 2 5 3 2
1327 1 0 2 3 5 2
276 1 0 2 8 2 0
1303 1 0 1 10 3 0
1025 1 0 2 8 2 0
2005 1 0 1 8 4 0
1507 1 0 2 8 4 0
1886 1 0 0 10 3 0
58 1 0 2 5 4 1
1397 1 0 1 7 6 0
1515 1 0 2 6 4 0
1541 1 0 3 4 5 0
1549 1 0 3 5 3 0
1301 1 1 2 5 5 0
1663 1 0 1 6 5 1
1718 1 1 1 2 4 2
1751 1 0 2 6 4 0
1537 1 0 2 6 3 3
517 1 0 2 6 5 1
1227 1 0 2 6 5 1
2009 1 0 1 10 5 0
1899 1 0 1 6 5 0
724 1 0 2 8 5 0
1366 1 0 2 5 1 3
1332 1 0 1 9 2 2
1971 1 0 1 10 2 0
244 1 0 2 8 2 0
1265 1 0 2 8 4 0
603 1 0 0 8 2 2
534 1 0 2 8 4 0
1177 1 0 0 12 0 0
1760 1 0 2 6 4 0
1661 1 0 0 10 4 0
1470 1 0 2 8 4 0
1251 1 0 4 4 5 2
1879 1 0 3 6 4 0
1655 1 0 2 5 5 0
1572 1 0 2 6 5 1
319 1 0 3 4 5 1
1759 1 0 3 1 5 2
1571 1 0 2 5 5 1
461 1 0 3 4 5 1
3 1 0 2 6 4 0
1830 1 0 4 4 6 0
1679 1 0 3 7 3 1
295 1 0 6 0 8 0
1932 1 0 1 10 3 0
1026 1 0 0 12 0 0
452 1 0 1 6 5 1
240 1 0 1 8 3 1
2048 1 0 1 8 3 0
47 1 0 0 11 2 0
205 1 0 2 6 4 1
1180 1 0 1 5 4 3
557 1 0 1 8 4 0
1659 1 1 3 2 3 3
1589 1 0 2 7 4 0
259 1 0 1 2 6 2
36 1 1 1 4 4 2
257 1 0 0 6 5 0
1008 1 0 0 7 5 1
1592 1 1 2 5 1 3
2030 1 0 0 9 2 1
1670 1 0 1 4 2 3
1916 1 0 0 5 4 2
95 1 0 3 5 3 2
242 1 0 3 5 2 3
726 1 0 2 4 3 2
338 1 0 1 4 5 3
1034 1 0 3 7 2 1
63 1 0 0 8 2 2
279 1 0 2 4 5 1
1690 1 0 3 6 5 0
78 1 0 2 4 6 0
456 1 0 2 4 7 1
1359 1 0 2 4 8 0
1840 1 0 2 5 4 0
2000 1 0 2 8 2 0
1550 1 0 2 5 3 3
1371 1 0 1 10 3 0
1734 1 1 0 8 3 1
1533 1 1 2 6 5 1
867 1 1 1 4 4 2
1933 1 0 1 6 3 1
43 1 0 2 3 5 1
1286 1 1 1 5 4 1
1328 1 0 3 4 4 2
516 1 0 1 10 3 0
1624 1 0 1 8 2 0
1581 1 0 2 7 2 2
68 1 0 3 6 3 2
1057 1 0 1 9 3 1
1859 1 0 1 9 0 2
1707 1 0 1 8 4 0
434 1 0 2 8 4 0
604 1 0 0 12 0 0
1128 1 0 2 6 5 1
1889 1 0 0 12 2 0
1132 1 0 2 7 2 1
96 1 0 1 5 5 1
329 1 0 2 3 7 0
16 1 0 3 4 4 1
1406 1 0 3 6 4 0
719 1 0 3 4 6 0
1585 1 0 1 7 4 1
1372 1 0 3 5 5 1
441 1 0 3 4 4 1
1674 1 0 3 5 4 2
1343 1 0 3 2 4 2
1618 1 0 2 4 6 0
1499 1 0 1 9 4 1
74 1 0 2 6 6 0
45 1 0 4 4 3 0
1687 1 0 0 8 5 0
1882 1 0 2 5 6 0
1702 1 0 3 4 5 1
375 1 0 2 4 5 0
1520 1 0 1 7 2 3
1538 1 0 1 8 4 0
511 1 0 2 6 1 2
1152 1 0 2 4 3 2
1291 1 0 2 6 4 2
1699 1 0 0 10 4 0
131 1 0 3 6 4 0
1609 1 0 1 6 5 1
451 1 0 3 4 5 1
1163 1 0 2 7 4 0
1691 1 0 1 10 2 0
1097 1 0 3 1 7 1
1613 1 0 0 6 4 1
1887 1 0 2 5 3 4
1854 1 0 1 6 5 0
1871 1 0 1 6 4 0
1206 1 0 2 8 4 0
1607 1 0 3 4 5 0
849 1 0 2 6 3 0
298 1 0 2 6 3 0
1693 1 0 1 8 4 0
1595 1 0 1 4 7 1
1686 1 0 1 6 4 1
1171 1 0 2 6 5 0
229 1 0 1 8 5 0
1346 1 0 2 4 3 2
1440 1 0 2 5 5 1
901 1 0 1 4 5 2
1664 1 0 3 1 6 1
1347 1 0 2 4 6 0
1218 1 1 1 5 4 0
1385 1 0 2 8 1 0
1165 1 1 2 5 3 1
620 1 0 3 7 4 1
1567 1 0 2 2 5 2
46 1 1 4 3 5 1
1968 1 1 2 5 4 0
776 1 0 3 6 4 0
977 1 0 2 4 6 0
974 1 0 3 4 5 1
1382 1 0 1 6 1 3
1596 1 0 0 7 3 2
1451 1 0 1 8 4 0
1102 1 0 1 6 5 0
1908 1 0 3 4 4 1
1101 1 0 3 6 5 0
617 1 0 3 4 5 1
1648 1 0 3 3 4 3
138 1 0 1 6 4 2
1435 1 0 2 6 3 1
23 1 0 2 6 7 0
141 1 0 1 8 4 0
1866 1 0 4 4 3 2
1930 1 0 1 10 2 0
2013 1 0 2 6 5 0
1 1 0 1 5 4 1
1282 1 0 2 6 6 0
1155 1 0 1 10 3 0
41 1 0 2 8 2 0
1605 1 0 2 8 4 0
671 1 0 0 8 5 0
254 1 0 3 6 4 0
215 1 0 2 8 3 0
1502 1 0 2 3 5 1
1902 1 0 1 6 3 2
1459 1 1 2 6 3 1
495 1 0 2 5 3 2
51 1 0 2 4 7 1
224 1 0 3 4 6 0
1519 1 1 0 5 4 1
196 1 0 2 7 2 2
1911 1 0 3 4 5 1
1458 1 0 3 4 5 1
1749 1 1 2 2 6 1
337 1 0 4 3 4 0
1694 1 0 1 5 5 2
2016 1 0 1 6 3 1
135 1 0 4 4 6 0
698 1 0 1 5 5 2
1923 1 1 1 1 5 3
1391 1 0 0 10 2 0
158 1 0 2 6 6 0
465 1 0 1 8 4 1
1922 1 0 1 8 4 0
1926 1 0 0 8 4 1
844 1 0 0 12 0 0
1503 1 0 1 7 2 1
1740 1 0 3 6 4 0
1348 1 0 1 8 4 1
1379 1 0 1 6 5 1
593 1 1 2 4 3 0
1199 1 0 0 3 7 2
57 1 0 1 3 8 1
1716 1 1 4 2 5 1
134 1 0 4 5 4 1
694 1 0 3 6 4 0
1532 1 1 2 4 2 3
245 1 0 0 10 3 0
1851 1 1 1 6 5 1
1773 1 0 3 6 5 0
1231 1 0 5 2 6 0
687 1 0 1 6 4 0
1766 1 0 4 2 8 0
1150 1 0 4 2 8 0
1527 1 0 2 6 4 0
183 1 0 2 8 2 0
1424 1 1 1 4 5 1
1383 1 0 3 3 6 0
1855 1 0 2 4 5 0
1957 1 0 2 8 3 2
1744 1 0 3 6 4 0
1076 1 0 0 12 2 0
1482 1 0 4 4 6 0
425 1 0 3 4 1 4
1993 1 0 3 5 4 2
1806 1 0 0 8 2 2
1557 1 0 2 5 5 2
1223 1 0 4 4 5 0
1972 1 0 2 2 6 2
466 1 0 1 5 6 1
243 1 0 3 5 4 1
1689 1 0 1 7 3 2
1593 1 0 3 5 2 2