ITEM: TIMESTEP
1926000
ITEM: NUMBER OF ATOMS
2048
ITEM: BOX BOUNDS pp pp pp
-0.4705520297 29.3505520297
-0.4705520297 29.3505520297
-0.4705520297 29.3505520297
ITEM: ATOMS id type VoronoiIndex3 VoronoiIndex4 VoronoiIndex5 VoronoiIndex6 VoronoiIndex7 VoronoiIndex8 VoronoiIndex9
1396 1 0 2 8 1 0 0 0
1902 1 0 1 10 4 0 0 0
949 1 0 3 4 5 1 0 0
972 1 0 0 4 6 1 0 0
130 1 0 2 8 4 0 0 0
1043 1 0 3 3 5 1 0 0
946 1 0 0 10 4 0 0 0
1442 1 0 2 5 4 2 0 0
739 1 0 1 6 1 4 0 0
658 1 0 2 7 5 2 0 0
1339 1 0 3 7 4 1 0 0
1384 1 0 0 9 3 0 0 0
254 1 0 1 8 2 1 0 0
1615 1 0 0 10 2 0 0 0
722 1 0 0 10 2 0 0 0
409 1 0 2 6 5 1 0 0
1637 1 0 1 6 3 2 0 0
1101 1 0 3 4 4 1 0 0
1478 1 0 1 3 6 1 0 0
355 1 0 1 6 4 2 0 0
708 1 0 1 7 5 1 0 0
793 1 0 2 6 4 1 0 0
174 1 0 0 8 4 0 0 0
1804 1 0 3 4 6 0 0 0
2024 1 0 2 7 3 2 0 0
1824 1 0 0 12 0 0 0 0
1982 1 0 1 8 5 0 0 0
671 1 0 0 12 0 0 0 0
1472 1 0 3 6 5 0 0 0
943 1 0 4 3 4 2 0 0
1178 1 0 3 6 3 0 0 0
725 1 0 2 7 3 1 0 0
1155 1 0 3 6 5 0 0 0
1368 1 0 1 6 6 0 0 0
1918 1 0 1 8 4 0 0 0
645 1 0 0 10 5 0 0 0
640 1 0 3 6 1 0 0 0
1285 1 0 3 6 3 0 0 0
1166 1 0 1 10 2 0 0 0
1883 1 0 0 9 3 0 0 0
503 1 0 0 6 5 1 0 0
384 1 0 1 7 2 2 0 0
1188 1 0 2 5 2 2 1 0
980 1 0 1 7 3 0 0 0
1853 1 0 1 6 2 2 0 0
1433 1 0 1 8 4 1 0 0
1762 1 0 3 7 4 1 0 0
1317 1 0 1 7 3 0 0 0
1235 1 0 1 7 2 1 0 0
827 1 0 1 10 2 0 0 0
1046 1 1 2 7 3 2 0 0
622 1 0 0 9 3 0 0 0
1995 1 0 2 6 5 1 0 0
1833 1 0 0 12 0 0 0 0
1680 1 0 3 3 4 2 0 0
1797 1 0 2 6 3 1 0 0
14 1 0 1 4 7 0 0 0
214 1 0 2 8 4 0 0 0
1006 1 0 0 10 2 0 0 0
396 1 0 2 6 5 0 0 0
100 1 0 1 10 2 0 0 0
1266 1 0 2 9 2 1 0 0
813 1 0 3 3 5 2 0 0
93 1 0 2 7 5 1 0 0
890 1 0 3 3 4 3 0 0
1927 1 0 2 5 4 2 0 0
340 1 0 0 12 0 0 0 0
270 1 0 2 7 2 0 2 0
47 1 0 2 4 4 1 1 0
1517 1 0 2 5 6 1 0 0
937 1 0 1 10 2 0 0 0
745 1 0 2 6 4 0 0 0
616 1 0 3 4 6 0 0 0
759 1 0 2 4 6 0 0 0
148 1 0 0 10 4 0 0 0
576 1 0 2 6 6 0 0 0
1652 1 0 3 5 4 0 1 0
1217 1 1 5 1 3 3 1 0
1192 1 0 3 5 4 2 0 0
1724 1 1 1 4 6 0 1 0
310 1 1 2 1 2 3 2 0
917 1 0 2 4 5 1 0 0
832 1 1 2 4 5 3 0 0
423 1 0 2 7 3 1 0 0
1808 1 0 3 4 6 0 0 0
940 1 0 2 4 4 2 0 0
209 1 0 1 8 3 2 0 0
1821 1 1 2 4 4 1 0 0
404 1 0 3 6 4 0 0 0
555 1 0 1 6 6 0 0 0
1963 1 0 4 4 3 3 0 0
1654 1 0 2 8 2 0 0 0
1443 1 0 3 6 5 0 0 0
1049 1 0 3 4 5 0 0 0
757 1 0 4 1 6 2 0 0
420 1 0 2 6 4 0 0 0
12 1 0 3 5 5 1 0 0
569 1 0 2 6 5 0 0 0
1595 1 0 1 10 3 0 0 0
2013 1 0 2 5 2 2 0 0
1537 1 0 0 9 0 2 0 0
1573 1 1 1 6 5 1 0 0
363 1 0 1 4 5 2 0 0
1299 1 0 1 7 2 2 0 0
529 1 1 3 3 4 2 0 0
987 1 1 3 0 5 2 0 0
1463 1 0 1 5 2 3 0 0
702 1 0 4 5 3 4 0 0
1948 1 0 4 2 4 4 0 0
518 1 0 2 7 2 2 0 0
920 1 0 3 6 4 0 0 0
206 1 0 2 4 6 1 0 0
1922 1 0 2 4 5 2 0 0
288 1 0 2 5 4 2 0 0
385 1 0 2 5 6 0 0 0
170 1 0 2 5 3 2 0 0
300 1 0 1 6 6 0 0 0
99 1 0 0 10 2 0 0 0
777 1 0 0 10 3 0 0 0
359 1 0 2 4 5 1 0 0
89 1 0 2 5 5 1 1 0
1234 1 1 2 6 2 0 2 0
677 1 0 2 2 6 1 3 0
1574 1 0 1 8 1 3 0 0
457 1 0 2 8 2 0 0 0
1727 1 0 2 5 4 0 0 0
1164 1 0 3 7 2 1 0 0
977 1 1 1 8 3 1 0 0
2029 1 0 1 10 2 0 0 0
108 1 0 2 6 3 0 0 0
41 1 1 2 6 3 1 0 0
90 1 0 0 7 3 2 1 0
981 1 0 2 5 6 0 0 0
559 1 0 3 2 5 2 1 0
1232 1 0 2 6 3 4 0 0
1479 1 0 2 2 4 4 0 0
1513 1 0 4 5 3 1 0 0
2027 1 0 0 9 3 0 0 0
931 1 0 0 8 6 0 0 0
1507 1 0 1 6 6 0 0 0
1133 1 0 1 8 5 0 0 0
2019 1 0 2 6 4 0 0 0
1810 1 1 3 4 4 1 0 0
1952 1 0 1 8 2 0 0 0
95 1 0 0 10 3 1 0 0
302 1 0 1 4 4 2 1 0
43 1 0 0 8 3 3 0 0
507 1 0 2 5 3 1 1 0
1153 1 1 0 7 4 2 0 0
199 1 0 1 10 2 0 0 0
1831 1 0 2 6 4 0 0 0
839 1 0 3 6 3 0 0 0
997 1 0 1 4 5 2 0 0
935 1 0 2 4 8 0 0 0
287 1 0 1 5 7 0 0 0
1352 1 0 3 6 6 0 0 0
268 1 0 1 6 5 0 0 0
1172 1 0 3 5 1 2 0 0
1173 1 0 2 6 4 0 0 0
1665 1 0 2 8 3 0 0 0
1908 1 0 1 10 3 0 0 0
1048 1 0 2 6 3 1 0 0
718 1 0 1 7 3 2 0 0
1199 1 0 3 6 4 0 0 0
1197 1 0 3 6 4 0 0 0
1787 1 0 0 10 3 0 0 0
1544 1 0 2 4 4 0 2 0
1331 1 0 1 8 3 0 0 0
1371 1 1 3 5 2 2 0 0
1689 1 0 3 6 4 0 0 0
1103 1 0 3 3 4 1 1 0
1692 1 0 0 6 6 1 0 0
1444 1 0 1 8 4 0 0 0
1627 1 0 3 6 3 0 0 0
191 1 0 0 10 3 0 0 0
1492 1 0 3 6 4 0 0 0
533 1 0 2 5 5 1 0 0
984 1 0 1 10 2 0 0 0
857 1 0 2 8 4 0 0 0
126 1 0 1 8 5 0 0 0
975 1 0 1 10 2 0 0 0
763 1 0 3 5 3 2 0 0
1302 1 0 2 8 4 0 0 0
306 1 0 1 6 3 3 1 0
1084 1 0 2 5 2 3 0 0
1280 1 0 1 4 4 2 0 0
88 1 0 0 10 4 0 0 0
985 1 0 3 3 9 0 0 0
383 1 0 2 5 6 0 0 0
1477 1 0 0 6 1 1 2 0
1688 1 0 3 1 6 3 0 0
600 1 1 2 5 2 1 1 0
693 1 1 3 3 4 2 0 0
493 1 0 2 2 8 1 0 0
322 1 0 1 6 3 1 0 0
441 1 0 2 5 5 0 0 0
1960 1 0 0 8 6 0 0 0
1806 1 0 3 4 5 0 0 0
1538 1 0 1 8 4 0 0 0
149 1 0 2 4 4 1 0 0
724 1 0 3 2 5 2 0 0
498 1 0 3 5 4 1 0 0
1845 1 0 1 8 4 0 0 0
1340 1 0 4 1 6 2 0 0
1490 1 1 0 6 3 2 0 0
42 1 0 3 4 4 2 0 0
633 1 0 1 5 5 2 0 0
1353 1 0 2 6 4 0 0 0
463 1 0 3 3 6 0 0 0
541 1 0 1 8 3 1 0 0
589 1 0 2 4 3 2 0 0
351 1 0 1 7 5 0 0 0
1756 1 0 2 8 3 0 0 0
924 1 0 1 4 4 2 0 0
133 1 0 1 7 4 0 1 0
80 1 0 0 10 4 0 0 0
594 1 0 3 6 4 0 0 0
528 1 0 0 10 3 0 0 0
431 1 1 2 4 3 2 1 0
105 1 0 1 7 3 2 0 0
951 1 0 4 5 5 1 0 0
1894 1 0 2 8 3 0 0 0
1224 1 0 1 8 3 0 0 0
414 1 0 1 10 2 0 0 0
163 1 0 2 6 4 0 0 0
411 1 0 0 12 0 0 0 0
1880 1 0 2 8 4 0 0 0
84 1 0 2 8 4 0 0 0
1958 1 1 3 6 2 1 1 0
1803 1 0 2 8 4 0 0 0
1734 1 0 2 5 4 2 0 0
1562 1 0 1 7 2 2 0 0
1967 1 0 3 4 4 3 0 0
958 1 0 1 6 5 1 0 0
736 1 0 2 6 4 0 0 0
590 1 0 3 5 5 1 0 0
7 1 0 2 8 4 0 0 0
250 1 0 0 6 2 2 0 0
1631 1 0 4 4 5 0 0 0
1163 1 0 3 7 4 1 0 0
631 1 0 2 5 4 0 0 0
422 1 0 3 3 4 1 1 0
456 1 1 1 5 2 3 0 0
1097 1 0 1 6 5 2 0 0
156 1 0 1 6 2 4 1 0
1342 1 0 2 4 3 1 0 0
1369 1 1 3 5 2 2 0 0
1753 1 0 2 4 4 2 0 0
1510 1 0 2 7 6 0 0 0
390 1 0 3 5 4 2 0 0
1334 1 0 3 4 6 0 0 0
1348 1 0 2 7 2 1 0 0
415 1 0 2 6 4 0 0 0
705 1 0 1 8 3 0 0 0
1031 1 0 3 4 8 0 0 0
1636 1 0 0 10 3 0 0 0
1383 1 0 3 4 5 1 0 0
1834 1 0 2 6 4 0 0 0
1566 1 0 4 2 5 1 0 0
295 1 0 4 4 6 0 0 0
1632 1 0 4 5 4 1 0 0
1842 1 0 2 8 4 0 0 0
1251 1 0 1 5 6 2 0 0
131 1 0 3 6 4 0 0 0
201 1 0 2 4 5 2 0 0
1700 1 0 2 4 6 0 0 0
766 1 0 1 4 4 2 0 0
1215 1 0 1 10 2 0 0 0
1541 1 0 1 7 2 3 0 0
654 1 0 1 8 2 0 0 0
1801 1 0 1 5 3 2 0 0
226 1 0 2 5 6 1 0 0
198 1 0 2 4 4 2 0 0
391 1 0 1 10 2 0 0 0
1421 1 1 2 4 4 1 0 0
183 1 0 0 5 4 3 0 0
370 1 0 1 9 0 2 0 0
350 1 0 1 8 2 2 0 0
394 1 0 1 9 3 0 0 0
598 1 0 2 6 4 0 0 0
801 1 0 2 8 4 0 0 0
1190 1 0 2 6 2 1 0 0
914 1 0 2 8 4 0 0 0
1567 1 0 1 10 3 0 0 0
508 1 0 1 5 4 3 0 0
1669 1 0 2 6 3 3 0 0
1035 1 0 2 8 4 0 0 0
1870 1 0 2 8 4 0 0 0
1829 1 0 0 12 0 0 0 0
1785 1 0 3 4 3 2 1 0
491 1 1 2 1 5 2 1 0
588 1 1 5 2 2 3 0 0
1691 1 0 3 5 4 2 0 0
591 1 0 4 2 5 1 1 0
71 1 0 2 6 4 0 0 0
976 1 0 1 8 5 0 0 0
388 1 0 0 9 2 2 0 0
1931 1 0 1 5 4 2 0 0
1448 1 0 1 10 4 0 0 0
251 1 0 1 4 2 4 0 0
375 1 0 4 1 3 3 0 0
1705 1 0 1 9 0 2 0 0
9 1 0 0 8 3 1 0 0
1141 1 0 2 4 6 1 0 0
699 1 0 4 4 6 0 0 0
202 1 0 2 4 3 1 0 0
557 1 0 1 6 5 1 0 0
1204 1 0 3 4 4 2 0 0
632 1 0 1 4 5 1 0 0
1397 1 0 2 6 4 0 0 0
1866 1 0 0 12 0 0 0 0
1075 1 0 2 4 4 3 0 0
1104 1 0 3 6 4 0 0 0
1576 1 0 1 6 3 2 0 0
153 1 0 4 3 4 2 0 0
573 1 0 4 2 3 3 0 0
816 1 0 3 4 6 1 0 0
1253 1 0 4 4 5 2 0 0
1263 1 0 3 5 3 1 0 0
1609 1 0 2 8 4 0 0 0
1892 1 0 1 7 3 1 1 0
690 1 0 2 6 5 0 0 0
1840 1 0 1 7 4 1 0 0
1063 1 0 3 2 5 2 0 0
968 1 0 2 4 5 2 0 0
194 1 0 3 5 1 3 0 0
761 1 0 1 9 1 1 0 0
674 1 0 3 5 4 1 0 0
970 1 0 1 8 4 0 0 0
1318 1 1 1 8 3 1 0 0
17 1 0 3 3 3 3 0 0
55 1 1 2 6 3 1 0 0
888 1 0 0 10 3 0 0 0
1555 1 2 1 5 2 3 0 0
867 1 0 3 5 3 2 0 0
1547 1 0 5 1 3 3 1 0
1364 1 2 2 2 2 2 2 0
876 1 0 3 5 5 0 0 0
810 1 0 0 8 3 1 0 0
1635 1 0 2 4 6 1 0 0
365 1 0 2 5 4 2 0 0
1376 1 0 2 8 4 0 0 0
1984 1 0 2 7 2 2 0 0
1183 1 0 1 9 0 2 0 0
1026 1 0 1 8 4 0 0 0
1511 1 0 3 4 7 0 0 0
1311 1 0 1 8 3 0 0 0
232 1 0 2 6 3 1 0 0
305 1 0 0 9 2 1 0 0
1764 1 0 1 7 3 0 0 0
326 1 0 1 5 5 2 0 0
818 1 0 1 4 6 1 0 0
897 1 0 0 7 4 1 0 0
501 1 0 0 10 3 0 0 0
1794 1 0 1 10 3 0 0 0
1909 1 0 1 5 5 0 0 0
419 1 0 1 6 5 2 0 0
2028 1 0 1 8 4 0 0 0
1100 1 0 5 3 4 1 0 0
1589 1 0 2 5 4 0 0 0
1276 1 0 1 5 5 0 0 0
1956 1 0 1 10 2 0 0 0
593 1 1 2 4 3 3 1 0
1305 1 0 0 8 3 0 0 0
698 1 1 2 3 4 1 1 0
504 1 0 1 6 5 1 0 0
1940 1 0 1 10 2 0 0 0
342 1 0 4 4 7 0 0 0
742 1 0 2 5 4 2 0 0
1206 1 0 3 2 4 3 0 0
983 1 0 2 5 2 2 0 0
147 1 0 1 10 4 0 0 0
1937 1 0 4 4 2 3 0 0
367 1 0 3 5 4 2 0 0
950 1 0 2 6 4 1 0 0
1434 1 0 1 8 5 1 0 0
792 1 0 2 4 5 1 0 0
353 1 0 3 5 2 2 0 0
2005 1 0 2 6 5 1 0 0
885 1 0 4 1 6 2 0 0
1879 1 0 3 7 4 1 0 0
1996 1 0 2 4 5 1 0 0
1980 1 0 2 5 7 0 0 0
1124 1 0 4 4 8 0 0 0
54 1 0 2 6 6 0 0 0
1261 1 0 1 7 5 1 0 0
1861 1 0 2 1 6 3 0 0
545 1 0 4 2 6 0 0 0
297 1 1 2 6 4 1 0 0
1424 1 0 3 1 5 2 0 0
110 1 0 3 4 5 1 0 0
1739 1 0 3 4 4 1 0 0
1676 1 0 2 5 4 2 0 0
1014 1 0 1 4 7 1 0 0
487 1 0 2 6 6 0 0 0
1017 1 0 3 3 5 1 0 0
1310 1 0 3 6 4 0 0 0
1754 1 0 1 6 5 0 0 0
321 1 0 4 3 5 1 1 0
141 1 0 1 4 4 0 2 0
490 1 0 0 10 3 0 0 0
1594 1 0 0 6 6 0 0 0
1157 1 0 1 6 6 0 0 0
1653 1 0 1 8 2 0 0 0
465 1 0 2 8 4 0 0 0
1871 1 0 0 12 0 0 0 0
1765 1 0 0 6 6 0 0 0
1807 1 0 0 9 3 0 0 0
1624 1 0 0 10 3 0 0 0
1582 1 0 0 8 4 1 0 0
162 1 1 0 9 3 0 0 0
348 1 0 0 12 0 0 0 0
1788 1 0 0 10 2 0 0 0
1667 1 1 1 7 3 2 0 0
743 1 0 0 7 1 3 1 0
841 1 0 3 2 3 2 1 0
1856 1 0 0 6 4 2 0 0
1884 1 0 2 6 5 1 0 0
1359 1 0 2 5 2 2 2 0
825 1 0 1 3 2 3 1 0
327 1 0 2 4 2 2 0 0
1557 1 0 2 6 6 0 0 0
2008 1 0 2 3 8 0 0 0
181 1 0 0 10 3 0 0 0
320 1 0 3 6 5 0 0 0
1601 1 0 1 8 2 2 0 0
1485 1 0 1 8 3 1 0 0
34 1 0 2 8 3 0 0 0
205 1 0 2 6 5 0 0 0
178 1 0 1 8 2 0 0 0
1766 1 0 2 4 6 0 0 0
138 1 0 1 10 3 0 0 0
1911 1 0 1 6 6 0 0 0
218 1 1 2 5 4 1 1 1
1640 1 0 2 8 5 0 0 0
787 1 0 0 5 6 0 0 1
1545 1 0 1 10 2 0 0 0
1476 1 0 2 8 3 0 0 0
261 1 0 0 10 2 0 0 0
1784 1 1 2 7 2 2 0 0
1324 1 0 2 7 2 2 0 0
1058 1 0 1 5 2 5 0 0
723 1 1 2 4 4 0 1 0
1977 1 0 0 10 2 0 0 0
2002 1 0 2 7 5 1 0 0
966 1 0 4 3 5 2 0 0
928 1 0 3 2 6 2 0 0
1022 1 0 2 4 4 2 0 0
437 1 0 3 5 4 2 0 0
460 1 0 2 8 1 0 0 0
1939 1 0 2 7 2 2 0 0
1386 1 0 2 6 3 2 0 0
821 1 0 3 4 5 1 0 0
103 1 0 1 4 3 2 1 0
1623 1 0 5 2 6 0 0 0
1852 1 0 1 6 6 0 0 0
1651 1 0 4 3 7 1 0 0
1004 1 0 2 6 4 0 0 0
1328 1 0 4 4 4 3 0 0
333 1 0 1 6 6 1 0 0
1945 1 0 4 1 5 3 0 0
1969 1 1 1 4 3 1 2 1
618 1 0 0 12 0 0 0 0
187 1 0 0 9 3 0 0 0
1725 1 0 0 12 3 0 0 0
258 1 0 2 5 5 2 0 1
1069 1 0 1 10 2 0 0 0
947 1 0 1 10 3 0 0 0
878 1 0 1 8 3 0 0 0
482 1 0 2 8 2 0 0 0
1269 1 0 1 6 5 0 0 0
1233 1 0 0 8 5 0 0 0
316 1 0 2 8 3 0 0 0
161 1 0 1 6 7 0 0 0
1198 1 0 3 6 3 0 0 0
1290 1 0 3 4 6 0 0 0
1949 1 0 2 7 2 1 0 0
544 1 0 2 6 5 0 0 0
524 1 0 3 3 5 2 0 0
15 1 0 1 8 4 0 0 0
10 1 0 2 5 4 2 1 0
1893 1 1 1 4 4 2 0 0
767 1 0 2 6 4 0 0 0
159 1 0 4 3 4 2 0 0
1007 1 1 1 2 4 2 0 0
1696 1 0 2 5 1 3 0 0
369 1 0 1 7 4 1 0 0
403 1 0 3 6 1 3 0 0
2011 1 0 1 8 6 0 0 0
1819 1 0 1 8 4 0 0 0
13 1 0 1 9 2 1 0 0
1262 1 0 0 10 3 0 0 0
1748 1 0 1 10 2 0 0 0
207 1 0 0 10 5 0 0 0
868 1 0 1 8 6 0 0 0
714 1 1 3 2 6 1 0 0
1559 1 0 0 10 2 0 0 0
1388 1 0 3 5 4 1 0 0
1312 1 0 2 5 6 1 0 0
379 1 0 2 3 7 0 0 0
312 1 0 2 5 1 3 0 0
1363 1 0 2 5 5 2 0 0
1686 1 0 1 6 5 0 0 0
438 1 0 1 9 2 1 0 0
1170 1 0 3 7 2 1 0 0
1504 1 0 3 6 3 0 0 0
663 1 0 2 6 6 0 0 0
1973 1 0 0 8 4 0 0 0
386 1 0 3 7 4 1 0 0
1516 1 0 2 8 4 0 0 0
1291 1 0 1 6 5 1 0 0
1177 1 0 2 6 3 0 0 0
1122 1 0 1 10 3 0 0 0
329 1 0 2 6 3 0 0 0
186 1 0 3 4 3 3 0 0
102 1 0 1 10 2 0 0 0
1981 1 0 2 7 4 1 0 0
1597 1 0 1 8 3 0 0 0
1942 1 0 1 6 5 0 0 0
82 1 1 0 8 3 1 0 0
1268 1 1 0 8 2 2 0 0
1697 1 0 1 3 4 3 0 0
1260 1 0 2 1 3 4 2 0
1455 1 0 1 10 2 1 0 0
1169 1 0 1 6 5 1 0 0
1850 1 0 3 3 6 2 0 0
1390 1 0 1 7 3 1 0 0
1699 1 0 2 6 5 0 0 0
1723 1 0 2 4 6 0 0 0
1946 1 0 2 7 4 1 0 0
1465 1 0 1 6 6 0 0 0
223 1 0 2 5 5 0 0 0
1052 1 0 2 5 6 1 0 0
1546 1 0 4 4 4 0 0 0
1451 1 0 2 7 2 1 0 0
1202 1 0 0 10 2 0 0 0
1774 1 0 2 9 2 1 0 0
1531 1 0 3 4 5 0 0 0
803 1 0 1 8 4 0 0 0
1505 1 0 2 8 3 0 0 0
936 1 0 2 7 3 1 0 0
196 1 0 1 9 3 0 0 0
1935 1 0 2 6 7 0 0 0
1038 1 0 1 10 2 0 0 0
217 1 0 1 8 4 0 0 0
1518 1 0 1 10 4 0 0 0
1003 1 0 2 4 6 0 0 0
2016 1 0 1 3 7 1 0 0
2015 1 1 2 4 4 0 1 0
64 1 0 0 10 3 1 0 0
1452 1 1 0 6 4 1 0 0
1275 1 0 0 12 0 0 0 0
364 1 0 2 8 3 0 0 0
483 1 0 1 7 7 0 0 0
1501 1 0 0 10 2 0 0 0
1284 1 0 1 8 4 0 0 0
874 1 0 2 8 2 0 0 0
337 1 0 0 12 2 0 0 0
486 1 0 1 8 4 0 0 0
1212 1 0 2 8 4 0 0 0
1358 1 0 2 3 5 2 0 0
296 1 1 3 1 5 2 0 0
1877 1 0 2 5 5 1 0 0
1336 1 0 2 6 5 0 0 0
313 1 0 1 6 4 1 0 0
1888 1 0 1 3 5 2 0 0
11 1 0 1 8 4 0 0 0
1414 1 0 1 8 5 0 0 0
1617 1 0 1 8 5 0 0 0
424 1 0 1 10 2 0 0 0
730 1 0 0 10 2 0 0 0
1605 1 0 0 10 3 0 0 0
334 1 0 1 10 3 0 0 0
1568 1 0 1 8 4 0 0 0
1066 1 0 1 8 6 0 0 0
324 1 0 3 6 4 0 0 0
271 1 0 1 5 5 2 0 0
2026 1 0 0 9 4 0 0 0
3 1 0 3 6 2 0 0 0
511 1 0 2 8 2 0 0 0
1713 1 0 1 8 3 0 0 0
22 1 0 2 8 2 0 0 0
1116 1 0 1 8 5 0 0 0
523 1 0 1 6 6 0 0 0
1377 1 0 2 8 2 0 0 0
1292 1 0 2 8 2 0 0 0
1429 1 0 1 5 4 3 0 0
30 1 0 1 8 5 0 0 0
637 1 0 1 8 3 0 0 0
1860 1 1 1 2 4 3 1 0
244 1 0 3 6 5 0 0 0
447 1 0 2 6 3 2 0 0
1256 1 0 2 8 2 0 0 0
741 1 1 3 2 3 3 0 0
97 1 0 1 10 2 0 0 0
1586 1 0 2 4 7 1 0 0
349 1 0 4 2 5 3 0 0
485 1 0 2 8 4 0 0 0
1221 1 0 3 5 3 3 0 0
1278 1 0 4 1 5 1 1 0
549 1 0 3 4 7 0 0 0
352 1 0 1 8 2 0 0 0
665 1 0 1 7 3 1 1 0
79 1 1 0 5 4 2 0 0
2003 1 0 3 4 5 1 0 0
1913 1 0 4 4 4 0 0 0
532 1 0 1 8 4 0 0 0
208 1 0 3 3 5 2 0 0
1661 1 0 2 6 2 1 0 0
1333 1 0 0 8 4 0 0 0
1543 1 0 1 6 3 2 0 0
1926 1 0 2 8 2 0 0 0
1237 1 0 2 6 5 0 0 0
650 1 0 3 3 5 1 0 0
1503 1 0 0 5 7 1 0 0
2020 1 0 0 8 4 0 0 0
1936 1 0 3 4 7 0 0 0
246 1 0 3 6 4 0 0 0
1140 1 0 2 7 4 0 0 0
1242 1 0 3 3 5 2 0 0
1527 1 0 2 6 2 1 0 0
896 1 0 1 1 6 2 0 0
995 1 0 2 8 1 3 0 0
862 1 0 2 5 3 4 0 0
851 1 0 3 3 4 2 0 0
132 1 0 1 6 2 1 0 0
1019 1 0 2 5 4 0 0 0
798 1 0 3 6 4 0 0 0
1321 1 0 3 4 7 1 0 0
86 1 1 4 2 6 1 1 0
1307 1 0 3 2 6 2 1 0
1431 1 0 2 6 4 0 0 0
1947 1 0 1 10 2 0 0 0
1818 1 0 3 7 2 1 0 0
289 1 0 3 5 1 2 3 0
1373 1 0 3 4 5 1 0 0
776 1 0 0 8 5 0 0 0
220 1 0 1 10 2 0 0 0
887 1 0 1 8 5 0 0 0
1257 1 0 0 6 5 0 0 0
1731 1 0 1 2 7 1 0 0
1611 1 0 2 6 3 1 0 0
1550 1 0 1 7 3 2 0 0
2014 1 0 2 8 4 0 0 0
727 1 0 3 2 8 0 0 0
744 1 0 2 6 3 1 0 0
1274 1 0 2 5 2 3 0 0
1882 1 1 1 4 3 2 0 0
1886 1 0 2 3 4 2 0 0
374 1 0 1 8 3 1 0 0
1607 1 0 1 9 2 2 0 0
259 1 0 3 3 5 2 0 0
433 1 0 2 4 3 2 1 0
834 1 0 2 2 4 3 1 0
1281 1 0 2 6 3 1 0 0
1552 1 0 1 8 5 0 0 0
1096 1 0 1 7 2 1 1 0
895 1 0 1 6 6 1 0 0
1176 1 0 2 8 2 0 0 0
121 1 0 1 6 4 1 1 0
1080 1 0 1 9 3 0 1 0
1120 1 0 1 6 5 0 0 0
1223 1 0 3 6 5 0 0 0
1341 1 0 3 3 5 2 0 0
1656 1 0 2 4 7 0 0 0
1010 1 0 3 4 6 0 0 0
1098 1 0 4 4 5 0 0 0
427 1 0 2 6 4 0 0 0
1759 1 0 1 8 5 0 0 0
1209 1 0 2 8 2 0 0 0
565 1 0 2 6 6 0 0 0
941 1 0 1 5 5 0 0 0
188 1 1 0 8 3 1 1 0
1903 1 0 3 4 4 1 0 0
1381 1 0 1 6 4 0 0 0
68 1 0 2 7 4 1 0 0
1008 1 0 4 3 5 1 0 0
1175 1 0 1 6 4 0 0 0
1684 1 1 2 5 2 2 0 0
738 1 0 2 8 4 0 0 0
184 1 0 2 6 3 1 0 0
584 1 0 0 8 2 1 1 0
1315 1 0 4 2 5 2 1 0
988 1 0 4 4 4 0 0 0
860 1 0 2 2 6 1 1 0
579 1 0 3 4 3 3 1 0
609 1 0 3 4 5 1 0 0
630 1 1 1 6 3 1 0 0
4 1 0 2 8 3 0 0 0
1990 1 0 3 5 4 1 0 0
1356 1 0 3 6 3 0 0 0
1771 1 0 1 7 3 2 0 0
1606 1 0 2 6 3 1 0 0
2042 1 0 3 4 5 1 0 0
596 1 0 2 3 6 1 0 0
2022 1 0 2 6 5 0 0 0
1633 1 0 0 8 4 1 0 0
571 1 0 1 8 3 1 0 0
1380 1 0 3 3 3 4 0 0
1258 1 0 3 6 3 0 0 0
641 1 0 3 4 6 0 0 0
248 1 0 2 6 5 1 0 0
1822 1 0 2 3 4 1 1 1
1666 1 0 0 12 2 0 0 0
8 1 0 0 8 4 1 0 0
824 1 0 0 12 3 0 0 0
956 1 0 2 9 2 1 0 0
1347 1 0 1 7 4 1 0 0
1090 1 0 2 8 2 0 0 0
76 1 0 2 2 8 1 0 0
1523 1 0 2 7 4 1 0 0
1301 1 0 1 4 7 0 0 0
1462 1 0 4 4 6 0 0 0
945 1 0 2 7 4 1 0 0
171 1 0 2 6 4 1 0 0
1744 1 0 3 6 4 0 0 0
1144 1 0 1 5 2 3 0 0
831 1 0 0 6 7 0 0 0
1928 1 0 2 5 4 0 0 0
1068 1 0 2 6 4 1 0 0
1706 1 0 2 3 4 1 1 0
750 1 2 3 2 2 4 0 0
2041 1 0 2 5 4 1 1 0
1616 1 1 5 1 7 0 2 0
1480 1 1 1 6 3 2 0 0
35 1 0 0 6 3 1 1 0
717 1 1 2 4 3 3 0 0
101 1 0 0 12 0 0 0 0
69 1 1 0 8 1 3 0 0
1809 1 1 2 5 3 1 1 0
2001 1 0 2 6 2 1 0 0
1599 1 0 2 7 4 1 0 0
1554 1 0 3 3 7 0 0 0
315 1 0 2 6 3 3 0 0
682 1 0 2 6 4 0 0 0
905 1 0 2 3 7 0 0 0
1468 1 0 2 3 3 2 0 0
245 1 1 2 6 3 1 0 1
1346 1 0 4 1 3 3 0 1
445 1 0 2 1 4 4 0 0
489 1 0 3 3 6 1 0 0
796 1 0 2 6 5 0 0 0
1620 1 0 2 4 8 0 0 0
106 1 0 0 10 2 0 0 0
1106 1 0 3 6 4 0 0 0
1862 1 0 2 5 4 0 1 0
1400 1 0 0 6 6 0 0 0
249 1 0 2 7 2 0 0 0
1828 1 0 1 9 5 0 0 0
284 1 0 1 9 3 2 0 0
1426 1 1 1 6 2 1 2 0
1445 1 1 2 5 3 1 1 0
758 1 0 1 4 4 2 0 0
1812 1 0 0 9 2 2 0 0
377 1 0 3 3 5 2 0 0
1647 1 0 2 2 5 2 0 0
1062 1 0 1 7 3 2 0 0
623 1 0 4 3 4 2 0 0
2036 1 0 1 4 1 4 1 0
436 1 0 2 7 2 2 0 0
712 1 0 0 5 5 1 0 0
1385 1 0 4 3 3 2 0 0
1226 1 0 3 3 7 0 1 0
1578 1 0 1 6 5 0 0 0
1506 1 0 0 10 3 0 0 0
1179 1 0 1 10 3 0 0 0
91 1 0 1 4 6 0 0 0
1132 1 0 1 10 2 0 0 0
330 1 0 3 3 7 0 0 0
850 1 0 0 8 3 1 0 0
1811 1 0 1 10 3 0 0 0
1030 1 0 1 8 5 0 0 0
859 1 0 2 5 3 1 1 0
1029 1 0 1 8 4 0 0 0
969 1 0 1 5 5 2 0 0
177 1 0 3 5 5 1 0 0
393 1 0 1 6 4 1 0 0
639 1 0 1 6 5 1 0 0
1246 1 0 2 8 4 0 0 0
990 1 0 2 6 2 1 0 0
561 1 0 3 5 3 2 0 0
873 1 0 1 6 5 2 0 0
182 1 0 2 5 3 3 0 0
336 1 0 1 7 3 3 0 0
1899 1 0 2 7 2 1 0 0
1500 1 0 0 12 0 0 0 0
1825 1 0 0 3 3 5 0 0
1815 1 0 2 7 3 2 0 0
562 1 0 1 10 2 0 0 0
1182 1 0 3 6 4 0 0 0
1020 1 0 0 12 3 0 0 0
1608 1 0 0 7 5 0 0 0
1180 1 0 0 8 4 0 0 0
1365 1 0 0 6 5 1 0 0
542 1 0 1 10 2 0 0 0
849 1 0 1 8 3 0 0 0
1910 1 0 1 10 2 0 0 0
509 1 0 1 7 5 0 0 0
1083 1 0 1 6 6 0 0 0
713 1 0 1 8 4 0 0 0
701 1 0 2 6 4 0 0 0
784 1 0 3 6 5 0 0 0
1528 1 0 3 6 4 0 0 0
768 1 0 1 8 4 0 0 0
1460 1 0 1 3 6 1 0 0
899 1 0 2 7 2 1 0 0
1712 1 0 1 6 1 3 0 0
376 1 0 4 4 7 0 0 0
799 1 1 0 9 3 0 0 0
1581 1 0 1 7 4 2 0 0
656 1 0 2 4 5 1 0 0
1432 1 1 4 1 5 2 1 0
25 1 0 2 7 3 1 0 0
155 1 0 0 12 3 0 0 0
1191 1 0 0 12 2 0 0 0
519 1 1 2 6 3 1 0 0
1708 1 1 0 9 3 0 0 0
1162 1 0 3 4 4 1 0 0
380 1 0 2 4 5 1 0 0
38 1 0 1 8 5 0 0 0
783 1 0 1 8 4 0 0 0
56 1 0 3 2 8 0 0 0
879 1 0 2 9 2 1 0 0
648 1 0 3 4 5 0 0 0
1042 1 0 1 7 3 1 1 0
1964 1 0 1 9 2 1 0 0
1746 1 0 1 10 3 0 0 0
772 1 0 2 6 3 1 0 0
1264 1 0 2 3 7 0 0 0
1349 1 0 3 5 4 1 0 0
286 1 0 2 4 5 1 0 0
805 1 0 2 7 4 0 1 0
794 1 0 1 10 6 0 0 0
1409 1 0 2 7 4 1 0 0
1427 1 0 2 7 3 3 0 0
1681 1 0 0 12 2 0 0 0
1073 1 0 1 8 1 0 0 0
1979 1 0 2 8 4 0 0 0
1394 1 0 1 9 2 2 0 0
1585 1 0 1 5 6 1 0 0
392 1 0 1 6 4 1 0 0
137 1 0 3 5 4 2 0 0
2012 1 1 2 2 5 2 1 0
1393 1 0 3 4 4 0 0 0
1849 1 0 1 6 5 1 0 0
1701 1 0 4 0 4 3 1 0
1522 1 0 3 4 5 1 0 0
1245 1 0 5 3 5 1 0 0
418 1 0 1 7 4 0 0 0
478 1 0 3 6 4 0 0 0
1891 1 0 2 2 3 3 1 0
1082 1 0 4 2 4 1 0 0
808 1 0 4 1 3 5 0 0
1920 1 0 1 6 5 0 0 0
274 1 0 0 9 3 0 0 0
44 1 0 2 9 2 1 0 0
692 1 0 1 10 3 0 0 0
1230 1 1 0 8 2 2 0 0
231 1 0 3 4 7 0 0 0
125 1 0 1 6 4 0 0 0
578 1 0 3 6 4 0 0 0
1272 1 0 2 6 5 0 0 0
405 1 0 0 12 2 0 0 0
775 1 0 1 10 2 0 0 0
1267 1 0 3 6 2 3 0 0
328 1 0 2 3 6 1 0 0
429 1 0 2 2 4 3 0 0
1018 1 0 0 7 7 0 0 0
1873 1 0 2 6 4 2 0 0
955 1 0 3 3 4 3 0 0
1156 1 0 1 4 1 3 2 0
1201 1 0 2 3 3 3 0 0
1252 1 0 1 1 1 4 3 0
820 1 0 3 5 3 2 1 0
929 1 1 1 5 3 2 1 0
582 1 0 4 5 3 1 0 0
1682 1 0 0 9 3 0 0 0
1644 1 0 2 6 4 0 0 0
1154 1 0 1 3 6 2 1 0
1626 1 0 0 9 3 0 0 0
1227 1 0 1 6 4 1 0 0
1059 1 0 1 10 2 0 0 0
974 1 0 2 7 3 1 0 0
58 1 0 4 4 2 3 0 0
139 1 0 2 8 4 0 0 0
901 1 0 1 8 6 0 0 0
680 1 0 1 8 3 0 0 0
1413 1 0 1 7 4 0 0 0
262 1 0 2 8 4 0 0 0
1330 1 2 2 2 4 1 1 1
179 1 1 2 3 4 3 0 0
926 1 0 2 1 6 1 1 0
706 1 0 1 6 4 0 0 0
1865 1 0 2 4 3 3 0 0
1210 1 0 4 5 4 1 0 0
930 1 0 0 7 4 3 0 0
903 1 0 1 8 4 0 0 0
786 1 0 0 10 2 0 0 0
884 1 0 0 12 0 0 0 0
1102 1 0 1 6 3 3 1 0
953 1 0 1 6 5 1 0 0
1078 1 0 0 10 2 0 0 0
94 1 0 0 12 2 0 0 0
1091 1 1 0 8 3 1 0 0
238 1 0 0 10 3 0 0 0
266 1 0 2 8 3 0 0 0
597 1 0 2 7 5 1 0 0
303 1 0 1 7 4 0 0 0
1890 1 0 2 4 6 0 0 0
492 1 0 3 6 4 0 0 0
6 1 0 2 7 3 1 0 0
927 1 0 1 6 4 1 0 0
685 1 0 3 3 3 3 0 0
1089 1 0 2 8 2 0 0 0
800 1 1 2 2 2 3 1 1
1603 1 0 3 3 5 1 0 1
107 1 0 1 6 2 2 0 0
301 1 0 1 10 2 0 0 0
1934 1 0 1 10 2 0 0 0
1360 1 0 1 10 4 0 0 0
726 1 0 2 6 5 0 0 0
1634 1 0 1 10 2 0 0 0
307 1 0 0 10 2 0 0 0
1128 1 0 0 8 3 1 0 0
1378 1 0 1 8 3 1 1 0
1679 1 0 1 10 2 0 0 0
1925 1 0 3 6 4 0 0 0
1556 1 0 2 8 2 0 0 0
643 1 0 2 6 3 0 0 0
612 1 0 1 10 2 0 0 0
309 1 0 1 8 4 0 0 0
1561 1 0 3 6 4 0 0 0
1742 1 0 2 7 3 1 0 0
430 1 0 0 12 2 0 0 0
1966 1 0 3 6 4 0 0 0
1137 1 0 0 8 5 0 0 0
934 1 0 2 8 5 0 0 0
195 1 0 3 6 4 0 0 0
715 1 0 1 8 4 0 0 0
1115 1 0 1 8 3 1 0 0
1138 1 0 2 5 5 1 0 0
1228 1 0 2 8 4 0 0 0
2009 1 0 2 5 4 0 0 0
1542 1 0 4 4 4 0 0 0
1943 1 0 2 6 3 3 0 0
1457 1 0 2 8 4 0 0 0
473 1 0 1 8 2 0 0 0
1983 1 0 2 8 4 0 0 0
219 1 0 0 8 5 1 1 0
1196 1 0 1 6 4 0 0 0
285 1 0 2 6 5 0 0 0
525 1 0 3 5 3 2 0 0
467 1 0 0 8 4 0 0 0
92 1 0 1 8 3 1 0 0
662 1 0 1 5 4 2 0 0
587 1 0 0 8 6 0 0 0
1011 1 0 1 9 0 2 0 0
1367 1 0 1 6 5 0 0 0
213 1 0 3 6 4 0 0 0
570 1 0 1 8 4 0 0 0
871 1 0 1 6 6 0 0 0
368 1 0 1 7 3 0 0 0
157 1 0 1 10 3 0 0 0
891 1 0 3 6 5 0 0 0
1127 1 0 1 10 4 0 0 0
679 1 0 2 4 3 2 0 0
1439 1 0 4 3 4 1 0 0
335 1 1 2 6 3 1 0 0
372 1 0 1 8 4 0 0 0
1000 1 0 1 7 3 2 0 0
599 1 0 1 10 2 0 0 0
1186 1 0 3 5 4 0 1 0
1916 1 0 1 6 6 0 0 0
1512 1 0 0 9 3 0 0 0
1282 1 0 2 5 3 2 0 0
735 1 0 1 8 2 1 0 0
1596 1 0 1 6 3 1 1 0
848 1 0 2 5 3 1 1 0
1560 1 0 2 5 4 2 0 0
1758 1 0 3 6 4 0 0 0
577 1 0 2 6 5 2 0 0
517 1 0 2 4 3 4 0 0
1968 1 0 3 6 2 0 0 0
278 1 0 2 4 6 0 0 0
51 1 0 2 5 3 1 1 0
586 1 0 0 10 4 0 0 0
661 1 0 2 8 4 0 0 0
471 1 0 2 8 4 0 0 0
1645 1 0 1 8 2 0 0 0
2 1 0 0 6 4 2 0 0
642 1 0 2 7 1 1 0 0
629 1 0 1 10 2 0 0 0
973 1 0 2 6 3 2 1 0
1415 1 0 3 2 5 3 0 0
175 1 0 2 7 5 1 0 0
707 1 0 2 8 2 0 0 0
1309 1 0 2 6 2 2 1 0
994 1 0 3 4 5 1 0 0
1836 1 0 1 3 4 3 0 0
1494 1 0 2 7 3 2 0 0
694 1 0 2 7 2 2 0 0
1459 1 0 2 3 2 4 1 0
1618 1 0 1 10 2 0 0 0
869 1 0 2 6 5 0 0 0
1296 1 0 2 6 4 1 1 0
1319 1 0 2 7 2 2 0 0
1539 1 0 2 6 2 1 0 0
1553 1 0 2 4 5 2 0 0
1955 1 0 3 4 6 0 0 0
1898 1 0 2 8 2 0 0 0
740 1 0 2 4 6 0 0 0
781 1 0 1 6 4 0 0 0
670 1 0 1 10 4 0 0 0
1630 1 0 2 6 3 1 0 0
1768 1 0 2 6 4 0 0 0
2025 1 0 0 8 5 0 0 0
568 1 0 2 5 4 2 0 0
621 1 0 2 6 5 1 0 0
921 1 0 1 4 6 1 0 0
752 1 0 1 3 5 3 0 0
129 1 0 2 4 3 2 0 0
676 1 0 3 6 5 0 0 0
459 1 0 1 6 3 1 0 0
1959 1 0 3 4 6 0 0 0
345 1 0 1 10 2 0 0 0
476 1 0 2 8 3 0 0 0
381 1 0 2 8 4 0 0 0
1236 1 0 3 4 7 0 0 0
963 1 0 0 10 4 0 0 0
1991 1 0 0 12 0 0 0 0
1985 1 0 0 12 2 0 0 0
450 1 0 2 8 4 0 0 0
675 1 0 1 10 3 0 0 0
440 1 0 0 7 4 1 0 0
866 1 1 1 6 3 1 0 0
636 1 0 2 5 5 0 0 0
1375 1 0 1 6 6 0 0 0
2006 1 0 3 5 4 2 1 0
152 1 0 2 6 4 0 0 0
1134 1 0 1 10 3 0 0 0
1773 1 1 2 5 5 0 0 0
1422 1 0 4 4 6 0 0 0
1993 1 0 2 6 3 1 0 0
536 1 0 3 4 5 2 0 0
789 1 0 4 3 4 2 0 0
932 1 0 3 6 1 3 0 0
479 1 0 1 6 6 0 0 0
853 1 0 2 6 4 0 0 0
1194 1 0 3 5 4 1 0 0
864 1 0 1 8 4 0 0 0
1497 1 0 1 10 2 0 0 0
73 1 0 1 9 3 1 0 0
711 1 0 0 12 2 0 0 0
1040 1 0 2 6 4 0 0 0
1265 1 0 2 6 4 0 0 0
398 1 0 1 7 4 3 0 0
1074 1 0 4 4 4 0 0 0
2017 1 0 5 3 4 1 0 0
1323 1 0 2 6 3 0 0 0
883 1 1 1 4 4 0 2 0
1469 1 0 3 7 3 1 0 0
603 1 0 3 4 4 1 1 0
40 1 0 2 4 7 0 0 0
520 1 0 2 4 7 0 0 0
341 1 0 1 10 2 0 0 0
1714 1 0 2 6 5 0 0 0
1999 1 0 2 6 7 0 0 0
1354 1 0 3 6 6 0 0 0
1430 1 0 2 6 4 0 0 0
1112 1 0 2 5 3 2 0 0
227 1 0 2 5 6 1 0 0
1148 1 1 2 2 5 3 0 0
546 1 0 0 7 1 1 2 0
601 1 0 2 6 5 0 0 0
683 1 0 1 7 3 2 0 0
2004 1 0 2 6 4 0 0 0
971 1 0 0 10 2 0 0 0
933 1 0 4 1 4 2 1 0
856 1 0 2 8 2 0 0 0
1763 1 0 1 10 4 0 0 0
1057 1 0 1 5 7 1 0 0
1355 1 0 2 6 5 0 0 0
239 1 0 3 7 4 1 0 0
1259 1 0 2 8 3 0 0 0
1525 1 0 4 2 7 1 0 0
506 1 0 2 7 5 0 0 0
1300 1 1 3 1 3 2 1 0
1248 1 0 3 4 6 0 0 0
33 1 0 2 6 5 0 0 0
164 1 0 2 8 3 0 0 0
1876 1 0 0 10 2 1 0 0
875 1 0 4 3 4 1 0 0
1076 1 0 0 10 5 0 0 0
1403 1 0 1 10 4 0 0 0
237 1 0 3 6 4 0 0 0
1953 1 0 3 4 5 0 0 0
1136 1 0 0 8 6 0 0 0
1418 1 0 3 5 5 1 0 0
696 1 0 0 9 3 0 0 0
764 1 1 0 8 2 2 0 0
216 1 0 2 5 5 0 0 0
1604 1 0 1 9 3 2 0 0
1957 1 0 2 5 3 3 1 0
1792 1 0 3 6 3 0 0 0
228 1 0 1 8 4 1 0 0
604 1 0 2 4 4 2 0 0
124 1 0 1 3 4 2 1 0
1475 1 0 0 6 6 0 0 0
2031 1 0 2 3 3 5 0 0
116 1 0 2 5 4 2 1 0
634 1 0 2 7 2 1 0 0
1919 1 0 0 10 2 1 0 0
57 1 0 2 4 6 1 0 0
1496 1 0 3 3 6 1 0 0
1181 1 0 5 0 3 3 1 0
689 1 0 1 10 2 0 0 0
1027 1 0 1 10 3 0 0 0
113 1 0 3 3 5 2 0 0
1056 1 0 0 9 2 2 0 0
1402 1 0 3 4 4 1 0 0
681 1 0 1 8 4 1 0 0
65 1 0 1 10 2 0 0 0
484 1 0 1 5 5 0 0 0
1404 1 0 3 6 4 0 0 0
1579 1 0 2 7 4 1 0 0
1088 1 0 0 9 3 0 0 0
494 1 0 0 12 0 0 0 0
610 1 0 0 12 2 0 0 0
1032 1 0 2 6 6 0 0 0
1777 1 0 1 8 5 0 0 0
294 1 0 0 10 2 0 0 0
1835 1 0 0 11 2 0 0 0
290 1 0 2 8 1 0 0 0
638 1 0 1 10 3 0 0 0
428 1 0 0 10 3 0 0 0
845 1 0 1 8 4 0 0 0
1612 1 1 4 3 6 0 1 0
1521 1 0 1 8 3 1 0 0
87 1 0 1 6 7 0 1 0
469 1 0 2 6 2 1 0 0
331 1 1 0 4 3 1 2 0
563 1 1 2 4 4 1 0 0
1613 1 0 2 6 3 1 1 0
558 1 0 0 6 6 1 0 0
1954 1 0 3 5 3 2 0 0
339 1 0 2 5 4 3 1 0
62 1 0 2 6 3 1 0 0
762 1 0 1 8 3 1 0 0
167 1 0 1 7 2 1 1 0
1638 1 0 2 6 4 1 0 0
1456 1 0 3 5 4 0 1 0
754 1 0 1 5 3 2 2 0
1677 1 0 2 8 3 0 0 0
1678 1 0 1 10 2 0 0 0
211 1 0 1 10 2 0 0 0
691 1 0 2 6 5 0 0 0
314 1 0 1 8 4 0 0 0
1225 1 0 0 7 2 3 0 0
1590 1 0 2 7 3 1 0 0
168 1 0 3 6 6 0 0 0
548 1 0 2 7 2 2 0 0
1790 1 0 4 4 3 3 0 0
1150 1 0 1 3 6 1 0 0
1778 1 0 0 9 3 0 0 0
894 1 1 2 4 2 1 1 1
462 1 0 2 4 7 0 0 0
657 1 0 1 5 4 2 0 0
1757 1 0 5 1 3 4 0 0
480 1 1 2 5 3 2 0 0
1362 1 0 3 6 5 0 0 0
1720 1 0 3 6 5 0 0 0
755 1 1 1 4 5 1 1 0
918 1 0 1 6 4 1 0 0
1158 1 1 3 6 1 3 0 0
608 1 0 3 4 4 1 0 0
1436 1 0 2 9 2 1 0 0
1830 1 0 1 7 5 1 0 0
510 1 0 4 4 5 0 0 0
397 1 0 3 6 6 0 0 0
1716 1 0 2 8 4 0 0 0
1283 1 0 2 6 5 0 0 0
1970 1 0 2 5 5 0 0 0
1745 1 0 1 3 8 1 1 0
1855 1 0 2 8 4 0 0 0
531 1 0 0 8 4 0 0 0
1659 1 0 5 2 4 2 0 0
678 1 0 2 7 4 1 0 0
2037 1 0 2 4 5 1 0 0
626 1 0 3 4 4 3 0 0
1673 1 0 3 6 4 0 0 0
1343 1 0 1 7 4 0 0 0
120 1 0 1 8 2 0 0 0
434 1 0 0 9 3 0 0 0
592 1 0 1 5 6 0 0 0
499 1 0 2 6 6 0 0 0
354 1 0 3 5 5 2 1 0
317 1 0 3 5 3 2 1 0
1572 1 0 2 7 3 2 0 0
898 1 0 2 4 4 1 0 0
556 1 0 2 7 5 1 0 0
96 1 1 3 4 4 1 0 0
1474 1 0 2 8 4 0 0 0
461 1 0 1 11 2 1 0 0
2010 1 0 1 7 2 2 0 0
1728 1 0 2 6 3 1 1 0
617 1 0 3 2 5 2 0 0
1530 1 0 2 5 3 3 0 0
37 1 0 1 9 3 2 0 0
72 1 0 1 7 2 1 0 0
572 1 0 1 10 3 0 0 0
807 1 0 4 4 6 0 0 0
1843 1 0 1 7 4 2 0 0
448 1 0 1 8 6 0 0 0
1737 1 0 1 10 2 0 0 0
39 1 0 3 4 5 1 0 0
1239 1 0 3 4 5 1 0 0
1065 1 0 2 3 7 0 0 0
1420 1 0 2 6 5 0 0 0
843 1 0 1 8 5 0 0 0
514 1 0 3 0 7 2 0 0
1254 1 0 4 3 3 1 1 0
751 1 0 4 3 3 3 1 0
242 1 0 3 4 5 1 0 0
552 1 0 2 5 3 3 0 0
1789 1 1 2 2 3 1 1 0
1642 1 0 3 3 5 1 0 0
1800 1 0 5 2 4 1 1 0
1570 1 0 4 3 6 1 0 0
154 1 0 3 4 6 1 1 0
477 1 0 0 12 0 0 0 0
458 1 0 0 10 3 0 0 0
806 1 0 1 8 5 0 0 0
1473 1 0 3 7 1 3 0 1
118 1 0 0 10 4 0 0 0
413 1 0 1 10 3 0 0 0
1208 1 0 4 3 3 3 1 0
225 1 0 3 3 4 0 1 0
1286 1 0 3 5 2 2 0 0
1289 1 0 1 7 4 2 0 0
1249 1 0 3 7 4 1 0 0
1738 1 0 1 8 3 1 0 0
36 1 0 2 5 5 2 0 0
356 1 0 0 10 2 0 0 0
1610 1 0 2 8 2 0 0 0
1482 1 0 1 6 4 0 0 0
830 1 0 1 6 5 0 0 0
1220 1 0 1 10 4 0 0 0
1961 1 0 3 6 6 0 0 0
1938 1 0 1 4 4 2 0 0
547 1 0 0 10 2 0 0 0
243 1 0 3 3 7 0 0 0
451 1 0 1 8 3 1 0 0
406 1 1 2 1 5 4 0 0
421 1 0 0 8 5 0 0 0
1962 1 0 2 7 4 1 0 0
292 1 0 4 2 6 0 0 0
373 1 0 1 10 2 0 0 0
1229 1 0 3 7 3 1 0 0
252 1 0 2 8 2 0 0 0
263 1 0 1 8 3 1 0 0
733 1 0 1 4 3 3 0 0
1174 1 0 2 6 4 0 0 0
1185 1 1 2 3 6 1 0 0
835 1 0 1 7 4 2 0 0
50 1 0 2 5 3 3 0 0
837 1 0 1 6 4 1 0 0
29 1 0 3 5 5 1 0 0
906 1 0 1 8 4 0 0 0
267 1 0 1 5 6 1 1 0
425 1 0 0 12 0 0 0 0
115 1 1 1 6 3 1 0 0
1304 1 0 0 10 2 0 0 0
221 1 0 2 7 1 2 2 0
1987 1 0 1 5 4 0 2 0
686 1 0 1 5 6 0 0 0
516 1 0 0 9 3 0 0 0
48 1 0 1 7 4 2 0 0
957 1 0 1 9 3 0 0 0
1709 1 0 1 6 4 1 0 0
1672 1 0 1 8 4 0 0 0
916 1 0 3 4 4 1 0 0
273 1 0 1 5 4 2 0 0
1374 1 0 0 7 5 0 0 0
470 1 0 4 7 2 3 0 0
1486 1 0 2 6 5 0 0 0
647 1 0 1 2 9 0 0 0
1118 1 0 3 3 4 2 0 0
1588 1 0 4 3 6 0 0 0
1733 1 0 2 6 4 0 0 0
78 1 0 4 2 7 1 0 0
673 1 1 2 3 3 4 0 0
1515 1 0 3 6 4 0 0 0
1051 1 0 0 12 3 0 0 0
892 1 0 1 8 3 1 0 0
1693 1 0 1 7 5 0 0 0
215 1 0 2 8 4 0 0 0
1781 1 0 2 6 4 0 0 0
819 1 0 0 7 4 1 1 0
1366 1 0 2 5 4 0 0 0
1093 1 0 0 9 5 0 0 0
1142 1 1 1 2 6 2 0 0
822 1 1 1 6 4 0 1 0
412 1 0 1 10 4 0 0 0
2007 1 0 0 11 2 1 0 0
1314 1 0 2 6 3 1 0 0
778 1 0 1 4 4 2 0 0
1350 1 0 2 5 3 2 0 0
318 1 0 1 3 4 3 0 0
747 1 0 1 7 2 2 0 0
925 1 0 2 5 3 2 0 0
774 1 0 4 2 7 1 0 0
1986 1 0 3 6 6 0 0 0
500 1 0 1 7 5 0 0 0
145 1 1 2 5 2 1 1 0
1045 1 1 1 8 3 1 0 0
1086 1 0 2 4 5 1 0 0
1203 1 1 3 3 4 0 0 0
999 1 0 2 6 5 1 0 0
1189 1 0 1 7 3 2 0 0
472 1 0 1 5 5 0 0 0
1361 1 0 1 6 5 0 0 0
907 1 0 2 6 4 0 0 0
1417 1 0 1 6 3 1 0 0
114 1 0 1 10 2 0 0 0
1399 1 0 4 6 3 2 0 0
1621 1 0 0 8 4 1 0 0
1493 1 0 2 8 4 0 0 0
1648 1 0 2 7 3 1 0 0
1131 1 0 1 6 5 1 0 0
543 1 0 1 7 2 1 1 0
2044 1 0 3 6 4 0 0 0
1326 1 0 1 10 3 0 0 0
1695 1 0 3 6 4 0 0 0
1205 1 0 1 8 4 0 0 0
281 1 0 0 10 2 0 0 0
900 1 1 1 7 3 1 1 0
687 1 1 1 8 3 1 0 0
265 1 0 3 5 3 1 0 0
855 1 0 2 6 6 0 0 0
619 1 0 3 6 5 0 0 0
620 1 0 3 6 6 0 0 0
127 1 0 2 8 4 0 0 0
260 1 0 0 9 3 0 0 0
842 1 0 1 6 6 0 0 0
16 1 0 0 10 2 0 0 0
77 1 0 0 12 0 0 0 0
192 1 0 2 6 5 0 0 0
716 1 0 0 10 4 0 0 0
1337 1 0 1 8 6 0 0 0
1875 1 0 3 6 5 0 0 0
749 1 0 0 12 0 0 0 0
46 1 0 3 4 7 0 0 0
1751 1 0 2 4 5 1 0 0
695 1 0 4 3 4 2 0 0
1484 1 0 1 7 6 0 0 0
1021 1 0 3 4 5 2 0 0
1509 1 1 2 6 3 1 0 0
989 1 0 3 6 3 0 0 0
67 1 0 2 2 4 1 1 0
1998 1 0 3 3 4 1 1 0
1643 1 0 1 7 5 1 0 0
399 1 0 0 9 3 0 0 0
112 1 0 2 5 2 1 0 1
1303 1 0 1 8 4 1 0 0
1752 1 0 1 8 5 0 0 0
1306 1 1 0 9 3 0 0 0
233 1 0 0 12 0 0 0 0
655 1 0 3 7 3 1 0 0
1740 1 0 1 8 4 1 0 0
1662 1 0 2 4 3 3 0 0
952 1 0 3 2 5 2 0 0
1139 1 0 2 6 3 0 0 0
378 1 0 0 6 6 0 0 0
347 1 0 0 9 3 0 0 0
1329 1 0 1 10 4 0 0 0
1041 1 0 3 3 4 2 0 0
1441 1 0 1 10 2 0 0 0
1668 1 0 0 10 2 0 0 0
846 1 0 1 8 4 0 0 0
1532 1 0 0 8 2 2 0 0
1382 1 1 2 5 3 1 2 0
703 1 0 1 4 3 2 1 0
838 1 0 2 8 4 0 0 0
1054 1 0 3 5 4 1 0 0
1149 1 0 3 6 5 0 0 0
61 1 0 3 4 7 1 0 0
343 1 1 3 0 4 2 2 0
1558 1 0 1 10 3 0 0 0
2040 1 0 1 7 3 1 1 1
1108 1 0 2 6 4 0 0 0
2034 1 0 3 4 4 0 0 0
779 1 0 0 8 4 0 0 0
60 1 0 4 4 7 0 0 0
417 1 0 0 8 3 0 0 0
880 1 0 1 7 2 2 0 0
21 1 0 3 4 6 0 0 0
814 1 0 2 4 5 1 1 0
710 1 0 1 6 3 1 0 0
1357 1 0 3 6 4 0 0 0
962 1 0 1 6 5 1 0 0
464 1 0 2 5 4 0 0 0
1649 1 0 1 8 4 0 0 0
1707 1 0 3 6 4 0 0 0
1167 1 0 2 8 3 0 0 0
581 1 0 0 7 5 0 0 0
660 1 0 2 8 4 0 0 0
526 1 0 0 12 3 0 0 0
1841 1 0 4 2 6 0 0 0
1161 1 0 1 10 2 0 0 0
1698 1 0 3 6 4 0 0 0
1129 1 0 4 3 4 2 0 0
1067 1 0 2 8 4 0 0 0
2030 1 0 1 10 2 0 0 0
1577 1 0 3 5 4 1 0 0
664 1 0 2 8 6 0 0 0
1389 1 0 3 4 3 1 0 0
85 1 0 2 6 4 0 1 0
1972 1 0 3 6 4 0 0 0
770 1 0 3 6 4 0 0 0
652 1 0 4 4 6 0 0 0
1769 1 0 4 4 6 0 0 0
291 1 0 0 8 4 0 0 0
756 1 0 3 4 6 0 0 0
844 1 0 1 7 5 0 0 0
911 1 0 0 10 5 0 0 0
1024 1 0 4 4 6 0 0 0
1671 1 1 2 4 5 1 0 0
1932 1 0 4 5 4 1 0 0
1255 1 0 1 10 5 0 0 0
1410 1 0 2 6 2 1 0 0
1277 1 0 3 7 3 1 0 0
1895 1 0 1 2 7 1 0 0
854 1 0 2 5 4 1 0 0
193 1 0 3 6 4 0 0 0
1001 1 0 1 8 3 0 0 0
5 1 0 2 6 7 0 0 0
1440 1 0 4 4 5 0 0 0
1923 1 0 1 8 3 0 0 0
960 1 0 2 8 2 0 0 0
402 1 0 2 3 2 4 0 0
1009 1 0 3 6 4 0 0 0
606 1 0 0 10 3 0 0 0
1540 1 0 2 3 3 3 0 0
1322 1 0 2 5 4 1 0 0
371 1 0 4 3 7 0 0 0